
                                 *****************
                                 * O   R   C   A *
                                 *****************

           --- An Ab Initio, DFT and Semiempirical electronic structure package ---

                  #######################################################
                  #                        -***-                        #
                  #  Department of molecular theory and spectroscopy    #
                  #              Directorship: Frank Neese              #
                  # Max Planck Institute for Chemical Energy Conversion #
                  #                  D-45470 Muelheim/Ruhr              #
                  #                       Germany                       #
                  #                                                     #
                  #                  All rights reserved                #
                  #                        -***-                        #
                  #######################################################


                         Program Version 3.0.3 - RELEASE   -


 With contributions from (in alphabetic order):
   Ute Becker             : Parallelization
   Dmytro Bykov           : SCF Hessian
   Dmitry Ganyushin       : Spin-Orbit,Spin-Spin,Magnetic field MRCI
   Andreas Hansen         : Spin unrestricted coupled pair/coupled cluster methods
   Dimitrios Liakos       : Extrapolation schemes; parallel MDCI
   Robert Izsak           : Overlap fitted RIJCOSX, COSX-SCS-MP3
   Christian Kollmar      : KDIIS, OOCD, Brueckner-CCSD(T), CCSD density
   Simone Kossmann        : Meta GGA functionals, TD-DFT gradient, OOMP2, MP2 Hessian
   Taras Petrenko         : DFT Hessian,TD-DFT gradient, ASA and ECA modules, normal mode analysis, Resonance Raman, ABS, FL, XAS/XES, NRVS
   Christoph Reimann      : Effective Core Potentials
   Michael Roemelt        : Restricted open shell CIS
   Christoph Riplinger    : Improved optimizer, TS searches, QM/MM, DLPNO-CCSD
   Barbara Sandhoefer     : DKH picture change effects
   Igor Schapiro          : Molecular dynamics
   Kantharuban Sivalingam : CASSCF convergence, NEVPT2
   Boris Wezisla          : Elementary symmetry handling
   Frank Wennmohs         : Technical directorship


 We gratefully acknowledge several colleagues who have allowed us to
 interface, adapt or use parts of their codes:
   Stefan Grimme, W. Hujo, H. Kruse, T. Risthaus : VdW corrections, initial TS optimization,
                                                   DFT functionals, gCP
   Ed Valeev                                     : LibInt (2-el integral package), F12 methods
   Garnet Chan, S. Sharma, R. Olivares           : DMRG
   Ulf Ekstrom                                   : XCFun DFT Library
   Mihaly Kallay                                 : mrcc  (arbitrary order and MRCC methods)
   Andreas Klamt, Michael Diedenhofen            : otool_cosmo (COSMO solvation model)
   Frank Weinhold                                : gennbo (NPA and NBO analysis)
   Christopher J. Cramer and Donald G. Truhlar   : smd solvation model


 Your calculation uses the libint2 library for the computation of 2-el integrals
 For citations please refer to: http://libint.valeyev.net

 This ORCA versions uses:
   CBLAS   interface :  Fast vector & matrix operations
   LAPACKE interface :  Fast linear algebra routines
   SCALAPACK package :  Parallel linear algebra routines


Your calculation utilizes the basis: Ahlrichs-VDZ
Cite in your paper:
H - Kr: A. Schaefer, H. Horn and R. Ahlrichs, J. Chem. Phys. 97, 2571 (1992).

Your calculation utilizes the basis: Ahlrichs SVPalls1+f
Cite in your paper:
Rb - Xe: A. Schaefer, C. Huber and R. Ahlrichs, J. Chem. Phys. 100, 5829 (1994).

================================================================================
                                        WARNINGS
                       Please study these warnings very carefully!
================================================================================
Now building the actual basis set


INFO   : the flag for use of LIBINT has been found!

================================================================================
                                       INPUT FILE
================================================================================
NAME = 0106.inp
|  1> ! RI PBE def2-SVP def2-SVP/J NBO PAL2
|  2> % maxcore 2000
|  3> % output
|  4>     # printlevel mini
|  5>     print[ P_Basis ] 0
|  6>     print[ P_SCFInfo ] 1
|  7>     print[ P_SCFIterInfo ] 1
|  8>     print[ P_OrbEn ] 0
|  9>     print[ P_Cartesian ] 0
| 10> end
| 11> *xyz 0 1
| 12>  C        0.8651110000     0.0109210000     0.0687240000 
| 13>  C        2.3570680000    -0.0283160000     0.0522500000 
| 14>  C        3.0742020000    -1.0654530000    -0.3831720000 
| 15>  C        4.4948690000    -1.0665930000    -0.3836510000 
| 16>  N        5.6472570000    -1.0903750000    -0.3936360000 
| 17>  H        0.4951600000     0.9555730000     0.4653080000 
| 18>  H        0.4570900000    -0.7950700000     0.6846250000 
| 19>  H        0.4570880000    -0.1138840000    -0.9379430000 
| 20>  H        2.8923600000     0.8430930000     0.4180930000 
| 21>  H        2.5972850000    -1.9654270000    -0.7610080000 
| 22> *
| 23> 
| 24>                          ****END OF INPUT****
================================================================================

                       ****************************
                       * Single Point Calculation *
                       ****************************

--------------------------------
INTERNAL COORDINATES (ANGSTROEM)
--------------------------------
 C      0   0   0   0.000000     0.000     0.000
 C      1   0   0   1.492564     0.000     0.000
 C      2   1   0   1.333989   124.153     0.000
 C      3   2   1   1.420668   122.569   180.000
 N      4   3   2   1.152677   178.768   180.001
 H      1   2   3   1.089270   111.488   180.001
 H      1   2   3   1.093360   111.092    59.603
 H      1   2   3   1.093361   111.092   300.398
 H      2   1   3   1.086155   117.893   180.000
 H      3   2   1   1.086353   121.440     0.000

---------------------------
INTERNAL COORDINATES (A.U.)
---------------------------
 C      0   0   0   0.000000     0.000     0.000
 C      1   0   0   2.820537     0.000     0.000
 C      2   1   0   2.520874   124.153     0.000
 C      3   2   1   2.684673   122.569   180.000
 N      4   3   2   2.178243   178.768   180.001
 H      1   2   3   2.058423   111.488   180.001
 H      1   2   3   2.066151   111.092    59.603
 H      1   2   3   2.066152   111.092   300.398
 H      2   1   3   2.052535   117.893   180.000
 H      3   2   1   2.052910   121.440     0.000



           ************************************************************
           *        Program running with 2 parallel MPI-processes     *
           *              working on a common directory               *
           ************************************************************
------------------------------------------------------------------------------
                           ORCA GTO INTEGRAL CALCULATION
                           -- RI-GTO INTEGRALS CHOSEN --
------------------------------------------------------------------------------

                         BASIS SET STATISTICS AND STARTUP INFO

Gaussian basis set:
 # of primitive gaussian shells          ...   85
 # of primitive gaussian functions       ...  155
 # of contracted shells                  ...   45
 # of contracted basis functions         ...   95
 Highest angular momentum                ...    2
 Maximum contraction depth               ...    5
Auxiliary gaussian basis set:
 # of primitive gaussian shells          ...  160
 # of primitive gaussian functions       ...  430
 # of contracted shells                  ...  100
 # of contracted aux-basis functions     ...  300
 Highest angular momentum                ...    4
 Maximum contraction depth               ...    7
Ratio of auxiliary to basis functions    ...  3.16
Integral package used                  ... LIBINT
 One Electron integrals                  ... done
 Ordering auxiliary basis shells         ... done
 Integral threshhold             Thresh  ...  1.000e-10
 Primitive cut-off               TCut    ...  1.000e-11
 Pre-screening matrix                    ... done
 Shell pair data                         ... 
 Ordering of the shell pairs             ... done (   0.000 sec) 993 of 1035 pairs
 Determination of significant pairs      ... done (   0.000 sec)
 Creation of shell pair data             ... done (   0.000 sec)
 Storage of shell pair data              ... done (   0.000 sec)
 Shell pair data done in (   0.001 sec)
 Computing two index integrals           ... done
 Cholesky decomposition of the V-matrix  ... done


Timings:
 Total evaluation time                   ...   0.136 sec (  0.002 min)
 One electron matrix time                ...   0.009 sec (  0.000 min) =  6.7%
 Schwartz matrix evaluation time         ...   0.067 sec (  0.001 min) = 49.2%
 Two index repulsion integral time       ...   0.002 sec (  0.000 min) =  1.4%
 Cholesky decomposition of V             ...   0.001 sec (  0.000 min) =  1.0%
 Three index repulsion integral time     ...   0.000 sec (  0.000 min) =  0.0%

           ************************************************************
           *              Shut down parallel processing               *
           ************************************************************


           ************************************************************
           *        Program running with 2 parallel MPI-processes     *
           *              working on a common directory               *
           ************************************************************
-------------------------------------------------------------------------------
                                 ORCA SCF
-------------------------------------------------------------------------------

------------
SCF SETTINGS
------------
Hamiltonian:
 Density Functional     Method          .... DFT(GTOs)
 Exchange Functional    Exchange        .... PBE
   PBE kappa parameter  XKappa          ....  0.804000
 Correlation Functional Correlation     .... PBE
 LDA part of GGA corr.  LDAOpt          .... PW91-LDA
 Gradients option       PostSCFGGA      .... off
   NL short-range parameter             ....  6.400000
 RI-approximation to the Coulomb term is turned on
   Number of auxiliary basis functions  .... 300


General Settings:
 Integral files         IntName         .... 0106
 Hartree-Fock type      HFTyp           .... RHF
 Total Charge           Charge          ....    0
 Multiplicity           Mult            ....    1
 Number of Electrons    NEL             ....   36
 Basis Dimension        Dim             ....   95
 Nuclear Repulsion      ENuc            ....    138.9232234822 Eh

Convergence Acceleration:
 DIIS                   CNVDIIS         .... on
   Start iteration      DIISMaxIt       ....    12
   Startup error        DIISStart       ....  0.200000
   # of expansion vecs  DIISMaxEq       ....     5
   Bias factor          DIISBfac        ....   1.050
   Max. coefficient     DIISMaxC        ....  10.000
 Newton-Raphson         CNVNR           .... off
 SOSCF                  CNVSOSCF        .... on
   Start iteration      SOSCFMaxIt      ....   150
   Startup grad/error   SOSCFStart      ....  0.003300
 Level Shifting         CNVShift        .... on
   Level shift para.    LevelShift      ....    0.2500
   Turn off err/grad.   ShiftErr        ....    0.0010
 Zerner damping         CNVZerner       .... off
 Static damping         CNVDamp         .... on
   Fraction old density DampFac         ....    0.7000
   Max. Damping (<1)    DampMax         ....    0.9800
   Min. Damping (>=0)   DampMin         ....    0.0000
   Turn off err/grad.   DampErr         ....    0.1000
 Fernandez-Rico         CNVRico         .... off

SCF Procedure:
 Maximum # iterations   MaxIter         ....   125
 SCF integral mode      SCFMode         .... Direct
   Integral package                     .... LIBINT
 Reset frequeny         DirectResetFreq ....    20
 Integral Threshold     Thresh          ....  1.000e-10 Eh
 Primitive CutOff       TCut            ....  1.000e-11 Eh

Convergence Tolerance:
 Convergence Check Mode ConvCheckMode   .... Total+1el-Energy
 Energy Change          TolE            ....  1.000e-06 Eh
 1-El. energy change                    ....  1.000e-03 Eh
 Orbital Gradient       TolG            ....  5.000e-05
 Orbital Rotation angle TolX            ....  5.000e-05
 DIIS Error             TolErr          ....  1.000e-06


Diagonalization of the overlap matrix:
Smallest eigenvalue                        ... 9.476e-04
Time for diagonalization                   ...    0.005 sec
Threshold for overlap eigenvalues          ... 1.000e-08
Number of eigenvalues below threshold      ... 0
Time for construction of square roots      ...    0.001 sec
Total time needed                          ...    0.007 sec

-------------------
DFT GRID GENERATION
-------------------

General Integration Accuracy     IntAcc      ...  4.340
Radial Grid Type                 RadialGrid  ... Gauss-Chebyshev
Angular Grid (max. acc.)         AngularGrid ... Lebedev-110
Angular grid pruning method      GridPruning ... 3 (G Style)
Weight generation scheme         WeightScheme... Becke
Basis function cutoff            BFCut       ...    1.0000e-10
Integration weight cutoff        WCut        ...    1.0000e-14
Grids for H and He will be reduced by one unit

# of grid points (after initial pruning)     ...  12296 (   0.0 sec)
# of grid points (after weights+screening)   ...  11740 (   0.0 sec)
nearest neighbour list constructed           ...    0.0 sec
Grid point re-assignment to atoms done       ...    0.0 sec
Grid point division into batches done        ...    0.0 sec
Reduced shell lists constructed in    0.0 sec

Total number of grid points                  ...    11740
Total number of batches                      ...      189
Average number of points per batch           ...       62
Average number of grid points per atom       ...     1174
Average number of shells per batch           ...    35.05 (77.89%)
Average number of basis functions per batch  ...    73.74 (77.62%)
Average number of large shells per batch     ...    29.21 (83.33%)
Average number of large basis fcns per batch ...    61.48 (83.37%)
Maximum spatial batch extension              ...  18.44, 18.49, 20.06 au
Average spatial batch extension              ...   1.56,  1.78,  1.96 au

Time for grid setup =    0.090 sec

------------------------------
INITIAL GUESS: MODEL POTENTIAL
------------------------------
Loading Hartree-Fock densities                     ... done
Calculating cut-offs                               ... done
Setting up the integral package                    ... done
Initializing the effective Hamiltonian             ... done
Starting the Coulomb interaction                   ... done (   0.0 sec)
Reading the grid                                   ... done
Mapping shells                                     ... done
Starting the XC term evaluation                    ... done (   0.0 sec)
  promolecular density results
     # of electrons  =     35.999638019
     EX              =    -28.374315040
     EC              =     -1.150169523
     EX+EC           =    -29.524484563
Transforming the Hamiltonian                       ... done (   0.0 sec)
Diagonalizing the Hamiltonian                      ... done (   0.0 sec)
Back transforming the eigenvectors                 ... done (   0.0 sec)
Now organizing SCF variables                       ... done
                      ------------------
                      INITIAL GUESS DONE (   0.2 sec)
                      ------------------
--------------
SCF ITERATIONS
--------------
ITER       Energy         Delta-E        Max-DP      RMS-DP      [F,P]     Damp
               ***  Starting incremental Fock matrix formation  ***
  0   -209.5828700882   0.000000000000 0.08714109  0.00331103  0.2307295 0.7000
  1   -209.6525146876  -0.069644599407 0.04697875  0.00215326  0.0738744 0.7000
                               ***Turning on DIIS***
  2   -209.6725807958  -0.020066108234 0.07714785  0.00343355  0.0380663 0.0000
  3   -209.7110972746  -0.038516478744 0.03581522  0.00161263  0.0431269 0.0000
  4   -209.7176671265  -0.006569851906 0.01838283  0.00063378  0.0429889 0.0000
  5   -209.7196671624  -0.002000035926 0.00313825  0.00016783  0.0073400 0.0000
                      *** Initiating the SOSCF procedure ***
                           *** Shutting down DIIS ***
                      *** Re-Reading the Fockian *** 
                      *** Removing any level shift *** 
ITER      Energy       Delta-E        Grad      Rot      Max-DP    RMS-DP
  6   -209.71974095  -0.0000737870  0.000443  0.000443  0.000983  0.000058
               *** Restarting incremental Fock matrix formation ***
  7   -209.71974835  -0.0000074010  0.000135  0.000495  0.000884  0.000039
  8   -209.71974712   0.0000012283  0.000514  0.001011  0.000826  0.000023
  9   -209.71974892  -0.0000017985  0.000108  0.000390  0.000365  0.000016
                 **** Energy Check signals convergence ****
              ***Rediagonalizing the Fockian in SOSCF/NRSCF***

               *****************************************************
               *                     SUCCESS                       *
               *           SCF CONVERGED AFTER  10 CYCLES          *
               *****************************************************

Setting up the final grid:

General Integration Accuracy     IntAcc      ...  4.670
Radial Grid Type                 RadialGrid  ... Gauss-Chebyshev
Angular Grid (max. acc.)         AngularGrid ... Lebedev-302
Angular grid pruning method      GridPruning ... 3 (G Style)
Weight generation scheme         WeightScheme... Becke
Basis function cutoff            BFCut       ...    1.0000e-10
Integration weight cutoff        WCut        ...    1.0000e-14
Grids for H and He will be reduced by one unit

# of grid points (after initial pruning)     ...  48030 (   0.0 sec)
# of grid points (after weights+screening)   ...  45444 (   0.0 sec)
nearest neighbour list constructed           ...    0.0 sec
Grid point re-assignment to atoms done       ...    0.0 sec
Grid point division into batches done        ...    0.2 sec
Reduced shell lists constructed in    0.3 sec

Total number of grid points                  ...    45444
Total number of batches                      ...      715
Average number of points per batch           ...       63
Average number of grid points per atom       ...     4544
Average number of shells per batch           ...    32.22 (71.60%)
Average number of basis functions per batch  ...    67.32 (70.87%)
Average number of large shells per batch     ...    26.26 (81.49%)
Average number of large basis fcns per batch ...    54.84 (81.46%)
Maximum spatial batch extension              ...  17.99, 20.26, 17.53 au
Average spatial batch extension              ...   1.20,  1.32,  1.38 au

Final grid set up in    0.3 sec
Final integration                            ... done (   0.2 sec)
Change in XC energy                          ...     0.000481229
Integrated number of electrons               ...    36.000010415
Previous integrated no of electrons          ...    36.001937047

----------------
TOTAL SCF ENERGY
----------------

Total Energy       :         -209.71926742 Eh           -5706.75139 eV

Components:
Nuclear Repulsion  :          138.92322348 Eh            3780.29310 eV
Electronic Energy  :         -348.64249090 Eh           -9487.04449 eV

One Electron Energy:         -556.41676579 Eh          -15140.86994 eV
Two Electron Energy:          207.77427489 Eh            5653.82545 eV

Virial components:
Potential Energy   :         -417.46454760 Eh          -11359.78786 eV
Kinetic Energy     :          207.74528018 Eh            5653.03647 eV
Virial Ratio       :            2.00950196


DFT components:
N(Alpha)           :       18.000005207721 electrons
N(Beta)            :       18.000005207721 electrons
N(Total)           :       36.000010415442 electrons
E(X)               :      -28.921250245724 Eh       
E(C)               :       -1.169352455019 Eh       
E(XC)              :      -30.090602700744 Eh       

---------------
SCF CONVERGENCE
---------------

  Last Energy change         ...    2.7126e-07  Tolerance :   1.0000e-06
  Last MAX-Density change    ...    2.5627e-04  Tolerance :   1.0000e-05
  Last RMS-Density change    ...    9.3979e-06  Tolerance :   1.0000e-06
  Last Orbital Gradient      ...    2.0352e-04  Tolerance :   5.0000e-05
  Last Orbital Rotation      ...    1.9990e-04  Tolerance :   5.0000e-05

             **** THE GBW FILE WAS UPDATED (0106.gbw) ****
             **** DENSITY FILE WAS UPDATED (0106.scfp.tmp) ****
             **** ENERGY FILE WAS UPDATED (0106.en.tmp) ****

                    ********************************
                    * MULLIKEN POPULATION ANALYSIS *
                    ********************************

-----------------------
MULLIKEN ATOMIC CHARGES
-----------------------
   0 C :    0.019269
   1 C :   -0.069501
   2 C :   -0.105554
   3 C :   -0.104797
   4 N :    0.038437
   5 H :    0.037623
   6 H :    0.055869
   7 H :    0.053264
   8 H :    0.035689
   9 H :    0.039701
Sum of atomic charges:    0.0000000

--------------------------------
MULLIKEN REDUCED ORBITAL CHARGES
--------------------------------
  0 C s       :     2.965015  s :     2.965015
      pz      :     1.026714  p :     2.991225
      px      :     0.946218
      py      :     1.018293
      dz2     :     0.004318  d :     0.024491
      dxz     :     0.005324
      dyz     :     0.003723
      dx2y2   :     0.005953
      dxy     :     0.005173
  1 C s       :     3.180295  s :     3.180295
      pz      :     0.927249  p :     2.855246
      px      :     0.962612
      py      :     0.965385
      dz2     :     0.002881  d :     0.033961
      dxz     :     0.006870
      dyz     :     0.003725
      dx2y2   :     0.009129
      dxy     :     0.011357
  2 C s       :     3.134764  s :     3.134764
      pz      :     1.036261  p :     2.937636
      px      :     0.942223
      py      :     0.959152
      dz2     :     0.003027  d :     0.033155
      dxz     :     0.005327
      dyz     :     0.003879
      dx2y2   :     0.011669
      dxy     :     0.009254
  3 C s       :     3.113587  s :     3.113587
      pz      :     0.968855  p :     2.946469
      px      :     1.007192
      py      :     0.970423
      dz2     :     0.003057  d :     0.044740
      dxz     :     0.017089
      dyz     :     0.000057
      dx2y2   :     0.008710
      dxy     :     0.015827
  4 N s       :     3.562214  s :     3.562214
      pz      :     1.049403  p :     3.368544
      px      :     1.279153
      py      :     1.039988
      dz2     :     0.002892  d :     0.030806
      dxz     :     0.009541
      dyz     :     0.000005
      dx2y2   :     0.008665
      dxy     :     0.009702
  5 H s       :     0.938610  s :     0.938610
      pz      :     0.006599  p :     0.023767
      px      :     0.005399
      py      :     0.011769
  6 H s       :     0.919499  s :     0.919499
      pz      :     0.008557  p :     0.024632
      px      :     0.005994
      py      :     0.010081
  7 H s       :     0.922058  s :     0.922058
      pz      :     0.012718  p :     0.024678
      px      :     0.006000
      py      :     0.005960
  8 H s       :     0.941234  s :     0.941234
      pz      :     0.005717  p :     0.023077
      px      :     0.006262
      py      :     0.011097
  9 H s       :     0.936560  s :     0.936560
      pz      :     0.006382  p :     0.023739
      px      :     0.005634
      py      :     0.011722


                     *******************************
                     * LOEWDIN POPULATION ANALYSIS *
                     *******************************

----------------------
LOEWDIN ATOMIC CHARGES
----------------------
   0 C :   -0.067225
   1 C :    0.022396
   2 C :   -0.078115
   3 C :   -0.044152
   4 N :   -0.059251
   5 H :    0.039134
   6 H :    0.049850
   7 H :    0.049443
   8 H :    0.039091
   9 H :    0.048829

-------------------------------
LOEWDIN REDUCED ORBITAL CHARGES
-------------------------------
  0 C s       :     2.831170  s :     2.831170
      pz      :     1.074193  p :     3.167774
      px      :     1.018521
      py      :     1.075060
      dz2     :     0.013003  d :     0.068281
      dxz     :     0.013160
      dyz     :     0.010857
      dx2y2   :     0.018802
      dxy     :     0.012458
  1 C s       :     2.877289  s :     2.877289
      pz      :     0.921713  p :     3.012374
      px      :     1.039652
      py      :     1.051008
      dz2     :     0.006766  d :     0.087941
      dxz     :     0.014352
      dyz     :     0.009568
      dx2y2   :     0.026884
      dxy     :     0.030371
  2 C s       :     2.858687  s :     2.858687
      pz      :     1.031142  p :     3.125788
      px      :     1.026411
      py      :     1.068235
      dz2     :     0.007673  d :     0.093640
      dxz     :     0.013276
      dyz     :     0.009809
      dx2y2   :     0.034929
      dxy     :     0.027952
  3 C s       :     2.908437  s :     2.908437
      pz      :     0.942086  p :     3.025696
      px      :     1.154873
      py      :     0.928736
      dz2     :     0.010253  d :     0.110019
      dxz     :     0.036133
      dyz     :     0.000058
      dx2y2   :     0.030503
      dxy     :     0.033073
  4 N s       :     3.424809  s :     3.424809
      pz      :     1.057914  p :     3.581133
      px      :     1.473442
      py      :     1.049777
      dz2     :     0.006418  d :     0.053309
      dxz     :     0.013735
      dyz     :     0.000007
      dx2y2   :     0.019229
      dxy     :     0.013920
  5 H s       :     0.893949  s :     0.893949
      pz      :     0.017127  p :     0.066917
      px      :     0.015800
      py      :     0.033990
  6 H s       :     0.882838  s :     0.882838
      pz      :     0.022066  p :     0.067312
      px      :     0.016919
      py      :     0.028327
  7 H s       :     0.883248  s :     0.883248
      pz      :     0.036597  p :     0.067309
      px      :     0.016930
      py      :     0.013781
  8 H s       :     0.891287  s :     0.891287
      pz      :     0.017080  p :     0.069622
      px      :     0.020224
      py      :     0.032318
  9 H s       :     0.881529  s :     0.881529
      pz      :     0.018771  p :     0.069643
      px      :     0.016835
      py      :     0.034037


                      *****************************
                      * MAYER POPULATION ANALYSIS *
                      *****************************

  NA   - Mulliken gross atomic population
  ZA   - Total nuclear charge
  QA   - Mulliken gross atomic charge
  VA   - Mayer's total valence
  BVA  - Mayer's bonded valence
  FA   - Mayer's free valence

  ATOM       NA         ZA         QA         VA         BVA        FA
  0 C      5.9807     6.0000     0.0193     3.9352     3.9352     0.0000
  1 C      6.0695     6.0000    -0.0695     4.0626     4.0626     0.0000
  2 C      6.1056     6.0000    -0.1056     3.9834     3.9834    -0.0000
  3 C      6.1048     6.0000    -0.1048     4.1088     4.1088    -0.0000
  4 N      6.9616     7.0000     0.0384     3.1223     3.1223    -0.0000
  5 H      0.9624     1.0000     0.0376     0.9870     0.9870    -0.0000
  6 H      0.9441     1.0000     0.0559     0.9922     0.9922     0.0000
  7 H      0.9467     1.0000     0.0533     0.9927     0.9927    -0.0000
  8 H      0.9643     1.0000     0.0357     0.9877     0.9877     0.0000
  9 H      0.9603     1.0000     0.0397     0.9952     0.9952     0.0000

  Mayer bond orders larger than 0.1
B(  0-C ,  1-C ) :   1.0740 B(  0-C ,  5-H ) :   0.9594 B(  0-C ,  6-H ) :   0.9529 
B(  0-C ,  7-H ) :   0.9529 B(  1-C ,  2-C ) :   1.8611 B(  1-C ,  4-N ) :   0.1113 
B(  1-C ,  8-H ) :   0.9546 B(  2-C ,  3-C ) :   1.1301 B(  2-C ,  9-H ) :   0.9477 
B(  3-C ,  4-N ) :   2.9624 


 *********************************** NBO 6.0 ***********************************
             N A T U R A L   A T O M I C   O R B I T A L   A N D
          N A T U R A L   B O N D   O R B I T A L   A N A L Y S I S
 ***************************** Kiya KiyaLu (100703) ****************************
  (c) Copyright 1996-2015 Board of Regents of the University of Wisconsin System
      on behalf of the Theoretical Chemistry Institute.  All rights reserved.

          Cite this program as:

          NBO 6.0.  E. D. Glendening, J. K. Badenhoop, A. E. Reed,
          J. E. Carpenter, J. A. Bohmann, C. M. Morales, C. R. Landis,
          and F. Weinhold (Theoretical Chemistry Institute, University
          of Wisconsin, Madison, WI, 2013); http://nbo6.chem.wisc.edu/

       /NPA    / : Natural Population Analysis
       /NBO    / : Natural Bond Orbital Analysis
       /AONBO  / : Write the AO to NBO transformation to lfn77
       /FILE   / : Set to 0106

 Filename set to 0106

 Job title:  *** NBO job generated by orca_scf

 Warning: MOs are non-orthogonal; program will continue

 Warning: -1442.47354 electrons reside outside the linearly independent MO space


 NATURAL POPULATIONS:  Natural atomic orbital occupancies

  NAO Atom No lang   Type(AO)    Occupancy      Energy
 -------------------------------------------------------
   1    C  1  s      Cor( 1s)     1.99916      -9.80219
   2    C  1  s      Val( 2s)     1.09548      -0.24201
   3    C  1  s      Ryd( 3s)     0.00031       0.78885
   4    C  1  px     Val( 2p)     1.09732      -0.09338
   5    C  1  px     Ryd( 3p)     0.00095       0.44340
   6    C  1  py     Val( 2p)     1.24853      -0.09454
   7    C  1  py     Ryd( 3p)     0.00278       0.56899
   8    C  1  pz     Val( 2p)     1.24194      -0.09517
   9    C  1  pz     Ryd( 3p)     0.00123       0.53327
  10    C  1  dxy    Ryd( 3d)     0.00042       2.12109
  11    C  1  dxz    Ryd( 3d)     0.00048       2.10316
  12    C  1  dyz    Ryd( 3d)     0.00041       2.20956
  13    C  1  dx2y2  Ryd( 3d)     0.00056       2.23485
  14    C  1  dz2    Ryd( 3d)     0.00043       2.21291

  15    C  2  s      Cor( 1s)     1.99894      -9.81021
  16    C  2  s      Val( 2s)     0.96387      -0.17968
  17    C  2  s      Ryd( 3s)     0.00172       0.48892
  18    C  2  px     Val( 2p)     1.07090      -0.06925
  19    C  2  px     Ryd( 3p)     0.00375       0.72495
  20    C  2  py     Val( 2p)     1.12546      -0.07626
  21    C  2  py     Ryd( 3p)     0.00236       0.63165
  22    C  2  pz     Val( 2p)     0.95079      -0.12638
  23    C  2  pz     Ryd( 3p)     0.00176       0.51895
  24    C  2  dxy    Ryd( 3d)     0.00087       2.29815
  25    C  2  dxz    Ryd( 3d)     0.00061       1.90537
  26    C  2  dyz    Ryd( 3d)     0.00046       2.02661
  27    C  2  dx2y2  Ryd( 3d)     0.00062       2.24041
  28    C  2  dz2    Ryd( 3d)     0.00044       1.98873

  29    C  3  s      Cor( 1s)     1.99874      -9.81130
  30    C  3  s      Val( 2s)     0.96464      -0.16161
  31    C  3  s      Ryd( 3s)     0.00144       0.42308
  32    C  3  px     Val( 2p)     1.09728      -0.07862
  33    C  3  px     Ryd( 3p)     0.00417       0.66806
  34    C  3  py     Val( 2p)     1.18447      -0.09126
  35    C  3  py     Ryd( 3p)     0.00141       0.72789
  36    C  3  pz     Val( 2p)     1.09161      -0.13101
  37    C  3  pz     Ryd( 3p)     0.00086       0.55248
  38    C  3  dxy    Ryd( 3d)     0.00063       2.28060
  39    C  3  dxz    Ryd( 3d)     0.00039       1.90392
  40    C  3  dyz    Ryd( 3d)     0.00052       2.02428
  41    C  3  dx2y2  Ryd( 3d)     0.00088       2.30011
  42    C  3  dz2    Ryd( 3d)     0.00052       2.00255

  43    C  4  s      Cor( 1s)     1.99919      -9.80516
  44    C  4  s      Val( 2s)     0.81816      -0.10648
  45    C  4  s      Ryd( 3s)     0.00382       0.53827
  46    C  4  px     Val( 2p)     1.00367       0.05429
  47    C  4  px     Ryd( 3p)     0.02003       0.60400
  48    C  4  py     Val( 2p)     0.93425      -0.09891
  49    C  4  py     Ryd( 3p)     0.00388       0.53442
  50    C  4  pz     Val( 2p)     0.94568      -0.09918
  51    C  4  pz     Ryd( 3p)     0.00128       0.50220
  52    C  4  dxy    Ryd( 3d)     0.00152       2.19866
  53    C  4  dxz    Ryd( 3d)     0.00174       2.15973
  54    C  4  dyz    Ryd( 3d)     0.00001       1.66109
  55    C  4  dx2y2  Ryd( 3d)     0.00073       2.62311
  56    C  4  dz2    Ryd( 3d)     0.00026       2.00651

  57    N  5  s      Cor( 1s)     1.99958     -13.73969
  58    N  5  s      Val( 2s)     1.58713      -0.50147
  59    N  5  s      Ryd( 3s)     0.00487       1.13233
  60    N  5  px     Val( 2p)     1.54184      -0.15309
  61    N  5  px     Ryd( 3p)     0.00219       0.78936
  62    N  5  py     Val( 2p)     1.07607      -0.13517
  63    N  5  py     Ryd( 3p)     0.00029       0.82809
  64    N  5  pz     Val( 2p)     1.08570      -0.13495
  65    N  5  pz     Ryd( 3p)     0.00043       0.80667
  66    N  5  dxy    Ryd( 3d)     0.00285       2.35134
  67    N  5  dxz    Ryd( 3d)     0.00284       2.33495
  68    N  5  dyz    Ryd( 3d)     0.00000       2.09855
  69    N  5  dx2y2  Ryd( 3d)     0.00281       2.72534
  70    N  5  dz2    Ryd( 3d)     0.00093       2.31023

  71    H  6  s      Val( 1s)     0.75871       0.05097
  72    H  6  s      Ryd( 2s)     0.00115       0.30544
  73    H  6  px     Ryd( 2p)     0.00020       1.74407
  74    H  6  py     Ryd( 2p)     0.00063       2.13531
  75    H  6  pz     Ryd( 2p)     0.00024       1.75429

  76    H  7  s      Val( 1s)     0.75147       0.04535
  77    H  7  s      Ryd( 2s)     0.00146       0.31301
  78    H  7  px     Ryd( 2p)     0.00024       1.74348
  79    H  7  py     Ryd( 2p)     0.00049       2.01899
  80    H  7  pz     Ryd( 2p)     0.00038       1.89708

  81    H  8  s      Val( 1s)     0.75157       0.04509
  82    H  8  s      Ryd( 2s)     0.00146       0.31120
  83    H  8  px     Ryd( 2p)     0.00025       1.73661
  84    H  8  py     Ryd( 2p)     0.00018       1.71195
  85    H  8  pz     Ryd( 2p)     0.00073       2.17769

  86    H  9  s      Val( 1s)     0.77015       0.05400
  87    H  9  s      Ryd( 2s)     0.00198       0.30605
  88    H  9  px     Ryd( 2p)     0.00028       1.93895
  89    H  9  py     Ryd( 2p)     0.00067       2.08252
  90    H  9  pz     Ryd( 2p)     0.00026       1.66375

  91    H 10  s      Val( 1s)     0.75218       0.04792
  92    H 10  s      Ryd( 2s)     0.00227       0.29944
  93    H 10  px     Ryd( 2p)     0.00023       1.95083
  94    H 10  py     Ryd( 2p)     0.00065       2.12050
  95    H 10  pz     Ryd( 2p)     0.00027       1.68012

   1 low occupancy (<1.9990e) core orbital  found on  C  2
   1 low occupancy (<1.9990e) core orbital  found on  C  3


 Summary of Natural Population Analysis:

                                     Natural Population
             Natural    ---------------------------------------------
  Atom No    Charge        Core      Valence    Rydberg      Total
 --------------------------------------------------------------------
    C  1   -0.69002      1.99916     4.68327    0.00758     6.69002
    C  2   -0.12254      1.99894     4.11101    0.01259     6.12254
    C  3   -0.34757      1.99874     4.33799    0.01083     6.34757
    C  4    0.26577      1.99919     3.70176    0.03328     5.73423
    N  5   -0.30753      1.99958     5.29075    0.01720     7.30753
    H  6    0.23907      0.00000     0.75871    0.00222     0.76093
    H  7    0.24595      0.00000     0.75147    0.00258     0.75405
    H  8    0.24582      0.00000     0.75157    0.00261     0.75418
    H  9    0.22665      0.00000     0.77015    0.00319     0.77335
    H 10    0.24440      0.00000     0.75218    0.00342     0.75560
 ====================================================================
 * Total *  0.00000      9.99562    25.90887    0.09551    36.00000

                                 Natural Population
 ---------------------------------------------------------
   Core                       9.99562 ( 99.9562% of   10)
   Valence                   25.90887 ( 99.6495% of   26)
   Natural Minimal Basis     35.90449 ( 99.7347% of   36)
   Natural Rydberg Basis      0.09551 (  0.2653% of   36)
 ---------------------------------------------------------

    Atom No         Natural Electron Configuration
 ----------------------------------------------------------------------------
      C  1      [core]2s( 1.10)2p( 3.59)
      C  2      [core]2s( 0.96)2p( 3.15)3p( 0.01)
      C  3      [core]2s( 0.96)2p( 3.37)3p( 0.01)
      C  4      [core]2s( 0.82)2p( 2.88)3p( 0.03)
      N  5      [core]2s( 1.59)2p( 3.70)3d( 0.01)
      H  6            1s( 0.76)
      H  7            1s( 0.75)
      H  8            1s( 0.75)
      H  9            1s( 0.77)
      H 10            1s( 0.75)


 NATURAL BOND ORBITAL ANALYSIS:

                            Occupancies       Lewis Structure    Low   High
         Max    Occ     -------------------  -----------------   occ   occ
  Cycle  Ctr   Thresh    Lewis   non-Lewis     CR  BD  nC  LP    (L)   (NL)
 ============================================================================
    1     2     1.90    35.60543   0.39457      5  12   0   1     0      0
 ----------------------------------------------------------------------------

 Structure accepted: No low occupancy Lewis orbitals

 -------------------------------------------------------
   Core                      9.99562 ( 99.956% of  10)
   Valence Lewis            25.60981 ( 98.499% of  26)
  ==================      =============================
   Total Lewis              35.60543 ( 98.904% of  36)
  -----------------------------------------------------
   Valence non-Lewis         0.33555 (  0.932% of  36)
   Rydberg non-Lewis         0.05902 (  0.164% of  36)
  ==================      =============================
   Total non-Lewis           0.39457 (  1.096% of  36)
 -------------------------------------------------------


     (Occupancy)   Bond orbital / Coefficients / Hybrids
 ------------------ Lewis ------------------------------------------------------
   1. (1.99916) CR ( 1) C  1            s(100.00%)
                                         1.0000  0.0000  0.0000  0.0000  0.0000
                                         0.0000  0.0000  0.0000  0.0000  0.0000
                                         0.0000  0.0000  0.0000  0.0000
   2. (1.99894) CR ( 1) C  2            s(100.00%)
                                         1.0000  0.0000  0.0000  0.0000  0.0000
                                         0.0000  0.0000  0.0000  0.0000  0.0000
                                         0.0000  0.0000  0.0000  0.0000
   3. (1.99874) CR ( 1) C  3            s(100.00%)
                                         1.0000  0.0000  0.0000  0.0000  0.0000
                                         0.0000  0.0000  0.0000  0.0000  0.0000
                                         0.0000  0.0000  0.0000  0.0000
   4. (1.99919) CR ( 1) C  4            s(100.00%)
                                         1.0000  0.0000  0.0000  0.0000  0.0000
                                         0.0000  0.0000  0.0000  0.0000  0.0000
                                         0.0000  0.0000  0.0000  0.0000
   5. (1.99958) CR ( 1) N  5            s(100.00%)
                                         1.0000  0.0000  0.0000  0.0000  0.0000
                                         0.0000  0.0000  0.0000  0.0000  0.0000
                                         0.0000  0.0000  0.0000  0.0000
   6. (1.97078) LP ( 1) N  5            s( 52.49%)p 0.90( 47.46%)d 0.00(  0.05%)
                                         0.0000  0.7240 -0.0278  0.6882  0.0286
                                        -0.0110 -0.0007 -0.0046 -0.0003  0.0007
                                         0.0003  0.0000 -0.0197  0.0112
   7. (1.98355) BD ( 1) C  1- C  2
               ( 49.95%)   0.7068* C  1 s( 30.09%)p 2.32( 69.87%)d 0.00(  0.04%)
                                         0.0000  0.5486  0.0051  0.8356  0.0060
                                        -0.0169  0.0087 -0.0069  0.0036 -0.0005
                                        -0.0003 -0.0003  0.0171 -0.0096
               ( 50.05%)   0.7075* C  2 s( 33.73%)p 1.96( 66.23%)d 0.00(  0.04%)
                                         0.0000  0.5808  0.0060 -0.8130  0.0001
                                         0.0274  0.0208  0.0118  0.0083  0.0005
                                         0.0002  0.0021  0.0154 -0.0112
   8. (1.98789) BD ( 1) C  1- H  6
               ( 61.93%)   0.7870* C  1 s( 23.54%)p 3.25( 76.42%)d 0.00(  0.03%)
                                         0.0000  0.4852  0.0027 -0.3002 -0.0085
                                         0.7570 -0.0094  0.3177 -0.0039 -0.0080
                                        -0.0034  0.0104 -0.0112 -0.0055
               ( 38.07%)   0.6170* H  6 s( 99.90%)p 0.00(  0.10%)
                                         0.9995 -0.0002  0.0119 -0.0264 -0.0110
   9. (1.97154) BD ( 1) C  1- H  7
               ( 62.13%)   0.7882* C  1 s( 23.17%)p 3.31( 76.79%)d 0.00(  0.03%)
                                         0.0000  0.4814 -0.0037 -0.3248 -0.0135
                                        -0.6453  0.0079  0.4957 -0.0002  0.0077
                                        -0.0048 -0.0142 -0.0077 -0.0004
               ( 37.87%)   0.6154* H  7 s( 99.91%)p 0.00(  0.09%)
                                         0.9995 -0.0016  0.0125  0.0218 -0.0177
  10. (1.97162) BD ( 1) C  1- H  8
               ( 62.13%)   0.7882* C  1 s( 23.17%)p 3.31( 76.79%)d 0.00(  0.03%)
                                         0.0000  0.4814 -0.0033 -0.3245 -0.0139
                                        -0.0981  0.0053 -0.8079  0.0055  0.0019
                                         0.0084  0.0037  0.0015  0.0152
               ( 37.87%)   0.6154* H  8 s( 99.90%)p 0.00(  0.10%)
                                         0.9995 -0.0016  0.0129  0.0028  0.0290
  11. (1.97510) BD ( 1) C  2- C  3
               ( 49.04%)   0.7003* C  2 s( 38.55%)p 1.59( 61.39%)d 0.00(  0.06%)
                                         0.0000  0.6206  0.0192  0.4189  0.0177
                                        -0.6097 -0.0096 -0.2573 -0.0033 -0.0159
                                        -0.0066  0.0119 -0.0058 -0.0101
               ( 50.96%)   0.7138* C  3 s( 40.37%)p 1.48( 59.58%)d 0.00(  0.05%)
                                         0.0000  0.6352  0.0164 -0.4196 -0.0121
                                         0.5974  0.0035  0.2503  0.0007 -0.0125
                                        -0.0051  0.0123 -0.0063 -0.0103
  12. (1.90031) BD ( 2) C  2- C  3
               ( 45.63%)   0.6755* C  2 s(  0.00%)p 1.00( 99.93%)d 0.00(  0.07%)
                                         0.0000 -0.0005 -0.0020 -0.0005 -0.0014
                                         0.3878 -0.0031 -0.9212  0.0163  0.0054
                                        -0.0125  0.0157  0.0080  0.0139
               ( 54.37%)   0.7373* C  3 s(  0.00%)p 1.00( 99.96%)d 0.00(  0.04%)
                                         0.0000 -0.0004  0.0022  0.0003 -0.0011
                                         0.3868  0.0002 -0.9219  0.0108 -0.0005
                                         0.0014 -0.0144 -0.0074 -0.0127
  13. (1.97551) BD ( 1) C  2- H  9
               ( 61.56%)   0.7846* C  2 s( 27.75%)p 2.60( 72.22%)d 0.00(  0.03%)
                                         0.0000  0.5263 -0.0215  0.4033 -0.0071
                                         0.6896 -0.0023  0.2899 -0.0007  0.0124
                                         0.0051  0.0077 -0.0043 -0.0063
               ( 38.44%)   0.6200* H  9 s( 99.89%)p 0.00(  0.11%)
                                         0.9994 -0.0035 -0.0167 -0.0268 -0.0112
  14. (1.98182) BD ( 1) C  3- C  4
               ( 50.74%)   0.7123* C  3 s( 31.17%)p 2.21( 68.77%)d 0.00(  0.06%)
                                         0.0000  0.5583  0.0012  0.8290 -0.0035
                                        -0.0097 -0.0182 -0.0041 -0.0072  0.0014
                                         0.0006  0.0023  0.0195 -0.0138
               ( 49.26%)   0.7018* C  4 s( 53.06%)p 0.88( 46.91%)d 0.00(  0.04%)
                                         0.0000  0.7280  0.0233 -0.6847  0.0109
                                        -0.0017 -0.0121 -0.0007 -0.0052  0.0009
                                         0.0004  0.0003  0.0162 -0.0096
  15. (1.96140) BD ( 1) C  3- H 10
               ( 62.39%)   0.7899* C  3 s( 28.43%)p 2.52( 71.54%)d 0.00(  0.03%)
                                         0.0000  0.5330 -0.0150 -0.3687  0.0101
                                        -0.7017 -0.0026 -0.2949 -0.0015  0.0072
                                         0.0029  0.0096 -0.0073 -0.0068
               ( 37.61%)   0.6133* H 10 s( 99.90%)p 0.00(  0.10%)
                                         0.9995 -0.0049  0.0147  0.0265  0.0111
  16. (1.99479) BD ( 1) C  4- N  5
               ( 41.65%)   0.6454* C  4 s( 46.65%)p 1.14( 53.27%)d 0.00(  0.07%)
                                         0.0000  0.6824 -0.0286  0.7266  0.0670
                                        -0.0168 -0.0007 -0.0069 -0.0002 -0.0011
                                        -0.0005  0.0003  0.0236 -0.0137
               ( 58.35%)   0.7638* N  5 s( 47.68%)p 1.09( 52.08%)d 0.00(  0.23%)
                                         0.0000  0.6887  0.0506 -0.7213  0.0179
                                         0.0135  0.0001  0.0058  0.0000 -0.0017
                                        -0.0007  0.0001  0.0417 -0.0240
  17. (1.98471) BD ( 2) C  4- N  5
               ( 46.34%)   0.6807* C  4 s(  0.02%)p99.99( 99.86%)d 4.86(  0.12%)
                                         0.0000  0.0133  0.0078  0.0124  0.0037
                                         0.9203 -0.0255  0.3881 -0.0106  0.0313
                                         0.0132 -0.0007  0.0016 -0.0001
               ( 53.66%)   0.7326* N  5 s(  0.00%)p 1.00( 99.73%)d 0.00(  0.27%)
                                         0.0000 -0.0014 -0.0016  0.0188 -0.0011
                                         0.9199 -0.0130  0.3880 -0.0055 -0.0475
                                        -0.0200  0.0009 -0.0022  0.0003
  18. (1.95079) BD ( 3) C  4- N  5
               ( 46.18%)   0.6796* C  4 s(  0.00%)p 1.00( 99.89%)d 0.00(  0.11%)
                                         0.0000  0.0001  0.0002  0.0002  0.0000
                                         0.3883 -0.0064 -0.9208  0.0143  0.0127
                                        -0.0301  0.0013  0.0007  0.0012
               ( 53.82%)   0.7336* N  5 s(  0.00%)p 1.00( 99.74%)d 0.00(  0.26%)
                                         0.0000  0.0001  0.0000 -0.0001  0.0000
                                         0.3880 -0.0049 -0.9201  0.0115 -0.0199
                                         0.0473 -0.0008 -0.0004 -0.0007
 ---------------- non-Lewis ----------------------------------------------------
  19. (0.01123) BD*( 1) C  1- C  2
               ( 50.05%)   0.7075* C  1 s( 30.09%)p 2.32( 69.87%)d 0.00(  0.04%)
                                         0.0000 -0.5486 -0.0051 -0.8356 -0.0060
                                         0.0169 -0.0087  0.0069 -0.0036  0.0005
                                         0.0003  0.0003 -0.0171  0.0096
               ( 49.95%)  -0.7068* C  2 s( 33.73%)p 1.96( 66.23%)d 0.00(  0.04%)
                                         0.0000 -0.5808 -0.0060  0.8130 -0.0001
                                        -0.0274 -0.0208 -0.0118 -0.0083 -0.0005
                                        -0.0002 -0.0021 -0.0154  0.0112
  20. (0.00433) BD*( 1) C  1- H  6
               ( 38.07%)   0.6170* C  1 s( 23.54%)p 3.25( 76.42%)d 0.00(  0.03%)
                                         0.0000 -0.4852 -0.0027  0.3002  0.0085
                                        -0.7570  0.0094 -0.3177  0.0039  0.0080
                                         0.0034 -0.0104  0.0112  0.0055
               ( 61.93%)  -0.7870* H  6 s( 99.90%)p 0.00(  0.10%)
                                        -0.9995  0.0002 -0.0119  0.0264  0.0110
  21. (0.00895) BD*( 1) C  1- H  7
               ( 37.87%)   0.6154* C  1 s( 23.17%)p 3.31( 76.79%)d 0.00(  0.03%)
                                         0.0000 -0.4814  0.0037  0.3248  0.0135
                                         0.6453 -0.0079 -0.4957  0.0002 -0.0077
                                         0.0048  0.0142  0.0077  0.0004
               ( 62.13%)  -0.7882* H  7 s( 99.91%)p 0.00(  0.09%)
                                        -0.9995  0.0016 -0.0125 -0.0218  0.0177
  22. (0.00900) BD*( 1) C  1- H  8
               ( 37.87%)   0.6154* C  1 s( 23.17%)p 3.31( 76.79%)d 0.00(  0.03%)
                                         0.0000 -0.4814  0.0033  0.3245  0.0139
                                         0.0981 -0.0053  0.8079 -0.0055 -0.0019
                                        -0.0084 -0.0037 -0.0015 -0.0152
               ( 62.13%)  -0.7882* H  8 s( 99.90%)p 0.00(  0.10%)
                                        -0.9995  0.0016 -0.0129 -0.0028 -0.0290
  23. (0.01818) BD*( 1) C  2- C  3
               ( 50.96%)   0.7138* C  2 s( 38.55%)p 1.59( 61.39%)d 0.00(  0.06%)
                                         0.0000 -0.6206 -0.0192 -0.4189 -0.0177
                                         0.6097  0.0096  0.2573  0.0033  0.0159
                                         0.0066 -0.0119  0.0058  0.0101
               ( 49.04%)  -0.7003* C  3 s( 40.37%)p 1.48( 59.58%)d 0.00(  0.05%)
                                         0.0000 -0.6352 -0.0164  0.4196  0.0121
                                        -0.5974 -0.0035 -0.2503 -0.0007  0.0125
                                         0.0051 -0.0123  0.0063  0.0103
  24. (0.08769) BD*( 2) C  2- C  3
               ( 54.37%)   0.7373* C  2 s(  0.00%)p 1.00( 99.93%)d 0.00(  0.07%)
                                         0.0000  0.0005  0.0020  0.0005  0.0014
                                        -0.3878  0.0031  0.9212 -0.0163 -0.0054
                                         0.0125 -0.0157 -0.0080 -0.0139
               ( 45.63%)  -0.6755* C  3 s(  0.00%)p 1.00( 99.96%)d 0.00(  0.04%)
                                         0.0000  0.0004 -0.0022 -0.0003  0.0011
                                        -0.3868 -0.0002  0.9219 -0.0108  0.0005
                                        -0.0014  0.0144  0.0074  0.0127
  25. (0.01892) BD*( 1) C  2- H  9
               ( 38.44%)   0.6200* C  2 s( 27.75%)p 2.60( 72.22%)d 0.00(  0.03%)
                                         0.0000 -0.5263  0.0215 -0.4033  0.0071
                                        -0.6896  0.0023 -0.2899  0.0007 -0.0124
                                        -0.0051 -0.0077  0.0043  0.0063
               ( 61.56%)  -0.7846* H  9 s( 99.89%)p 0.00(  0.11%)
                                        -0.9994  0.0035  0.0167  0.0268  0.0112
  26. (0.02807) BD*( 1) C  3- C  4
               ( 49.26%)   0.7018* C  3 s( 31.17%)p 2.21( 68.77%)d 0.00(  0.06%)
                                         0.0000 -0.5583 -0.0012 -0.8290  0.0035
                                         0.0097  0.0182  0.0041  0.0072 -0.0014
                                        -0.0006 -0.0023 -0.0195  0.0138
               ( 50.74%)  -0.7123* C  4 s( 53.06%)p 0.88( 46.91%)d 0.00(  0.04%)
                                         0.0000 -0.7280 -0.0233  0.6847 -0.0109
                                         0.0017  0.0121  0.0007  0.0052 -0.0009
                                        -0.0004 -0.0003 -0.0162  0.0096
  27. (0.02441) BD*( 1) C  3- H 10
               ( 37.61%)   0.6133* C  3 s( 28.43%)p 2.52( 71.54%)d 0.00(  0.03%)
                                         0.0000 -0.5330  0.0150  0.3687 -0.0101
                                         0.7017  0.0026  0.2949  0.0015 -0.0072
                                        -0.0029 -0.0096  0.0073  0.0068
               ( 62.39%)  -0.7899* H 10 s( 99.90%)p 0.00(  0.10%)
                                        -0.9995  0.0049 -0.0147 -0.0265 -0.0111
  28. (0.01074) BD*( 1) C  4- N  5
               ( 58.35%)   0.7638* C  4 s( 46.65%)p 1.14( 53.27%)d 0.00(  0.07%)
                                         0.0000  0.6824 -0.0286  0.7266  0.0670
                                        -0.0168 -0.0007 -0.0069 -0.0002 -0.0011
                                        -0.0005  0.0003  0.0236 -0.0137
               ( 41.65%)  -0.6454* N  5 s( 47.68%)p 1.09( 52.08%)d 0.00(  0.23%)
                                         0.0000  0.6887  0.0506 -0.7213  0.0179
                                         0.0135  0.0001  0.0058  0.0000 -0.0017
                                        -0.0007  0.0001  0.0417 -0.0240
  29. (0.02571) BD*( 2) C  4- N  5
               ( 53.66%)   0.7326* C  4 s(  0.02%)p99.99( 99.86%)d 4.86(  0.12%)
                                         0.0000  0.0133  0.0078  0.0124  0.0037
                                         0.9203 -0.0255  0.3881 -0.0106  0.0313
                                         0.0132 -0.0007  0.0016 -0.0001
               ( 46.34%)  -0.6807* N  5 s(  0.00%)p 1.00( 99.73%)d 0.00(  0.27%)
                                         0.0000 -0.0014 -0.0016  0.0188 -0.0011
                                         0.9199 -0.0130  0.3880 -0.0055 -0.0475
                                        -0.0200  0.0009 -0.0022  0.0003
  30. (0.08831) BD*( 3) C  4- N  5
               ( 53.82%)   0.7336* C  4 s(  0.00%)p 1.00( 99.89%)d 0.00(  0.11%)
                                         0.0000  0.0001  0.0002  0.0002  0.0000
                                         0.3883 -0.0064 -0.9208  0.0143  0.0127
                                        -0.0301  0.0013  0.0007  0.0012
               ( 46.18%)  -0.6796* N  5 s(  0.00%)p 1.00( 99.74%)d 0.00(  0.26%)
                                         0.0000  0.0001  0.0000 -0.0001  0.0000
                                         0.3880 -0.0049 -0.9201  0.0115 -0.0199
                                         0.0473 -0.0008 -0.0004 -0.0007
  31. (0.00335) RY ( 1) C  1            s(  3.16%)p28.58( 90.32%)d 2.06(  6.52%)
                                         0.0000  0.0091  0.1775  0.0014  0.1805
                                        -0.0168 -0.8473 -0.0071 -0.3903 -0.2297
                                        -0.1071  0.0208 -0.0032 -0.0221
  32. (0.00122) RY ( 2) C  1            s(  0.03%)p99.99( 66.76%)d99.99( 33.20%)
                                         0.0000  0.0006  0.0187 -0.0004  0.0200
                                        -0.0045 -0.3361  0.0085  0.7444 -0.2390
                                         0.5242  0.0047  0.0029  0.0025
  33. (0.00038) RY ( 3) C  1            s( 26.54%)p 2.69( 71.41%)d 0.08(  2.05%)
                                         0.0000  0.0092  0.5151 -0.0194  0.8133
                                        -0.0016  0.2149 -0.0010  0.0779  0.1082
                                         0.0268  0.0305  0.0538 -0.0648
  34. (0.00010) RY ( 4) C  1            s( 42.73%)p 0.56( 23.97%)d 0.78( 33.30%)
  35. (0.00003) RY ( 5) C  1            s( 10.80%)p 0.29(  3.14%)d 7.97( 86.06%)
  36. (0.00000) RY ( 6) C  1            s(  0.02%)p99.99( 32.30%)d99.99( 67.67%)
  37. (0.00000) RY ( 7) C  1            s(  9.30%)p 1.06(  9.89%)d 8.69( 80.81%)
  38. (0.00000) RY ( 8) C  1            s(  7.38%)p 0.21(  1.58%)d12.34( 91.04%)
  39. (0.00000) RY ( 9) C  1            s(  0.06%)p13.09(  0.73%)d99.99( 99.21%)
  40. (0.00488) RY ( 1) C  2            s( 11.51%)p 7.01( 80.71%)d 0.68(  7.78%)
                                         0.0000 -0.0109  0.3391  0.0115  0.7903
                                         0.0230  0.3987  0.0089  0.1512 -0.1764
                                        -0.0685 -0.0526  0.1909 -0.0526
  41. (0.00186) RY ( 2) C  2            s(  0.00%)p 1.00( 80.28%)d 0.25( 19.72%)
                                         0.0000  0.0000  0.0027  0.0036 -0.0935
                                         0.0067  0.4600 -0.0202 -0.7629 -0.2021
                                         0.3894 -0.0349 -0.0426 -0.0410
  42. (0.00144) RY ( 3) C  2            s(  0.21%)p99.99( 91.58%)d39.19(  8.21%)
                                         0.0000 -0.0026  0.0457  0.0191 -0.4922
                                        -0.0082  0.6925  0.0043  0.4400 -0.1996
                                        -0.1807  0.0650 -0.0727 -0.0074
  43. (0.00050) RY ( 4) C  2            s( 54.01%)p 0.32( 17.15%)d 0.53( 28.85%)
                                         0.0000 -0.0034  0.7349 -0.0069 -0.2164
                                         0.0293 -0.3261  0.0095 -0.1317 -0.4712
                                        -0.1841  0.1176 -0.1167 -0.0715
  44. (0.00018) RY ( 5) C  2            s( 15.80%)p 0.54(  8.47%)d 4.79( 75.73%)
                                         0.0000 -0.0003  0.3975  0.0177 -0.2559
                                        -0.0030 -0.0010 -0.0045  0.1373  0.3550
                                         0.4147 -0.2426  0.6048 -0.1860
  45. (0.00017) RY ( 6) C  2            s(  1.41%)p13.43( 18.96%)d56.40( 79.63%)
                                         0.0000  0.0000  0.1188  0.0051 -0.0720
                                        -0.0047  0.1573  0.0084 -0.3995  0.4387
                                        -0.7060  0.1136  0.2862  0.1030
  46. (0.00004) RY ( 7) C  2            s(  7.35%)p 0.28(  2.08%)d12.31( 90.56%)
  47. (0.00000) RY ( 8) C  2            s(  0.02%)p14.70(  0.36%)d99.99( 99.62%)
  48. (0.00000) RY ( 9) C  2            s(  9.65%)p 0.07(  0.64%)d 9.29( 89.71%)
  49. (0.00512) RY ( 1) C  3            s(  8.66%)p 9.63( 83.40%)d 0.92(  7.93%)
                                         0.0000 -0.0084  0.2942 -0.0108 -0.8618
                                        -0.0197 -0.2823 -0.0078 -0.1055 -0.1562
                                        -0.0625 -0.0801  0.2087 -0.0322
  50. (0.00101) RY ( 2) C  3            s(  0.03%)p99.99( 69.36%)d99.99( 30.61%)
                                         0.0000 -0.0023  0.0169 -0.0035  0.1205
                                        -0.0034 -0.5290  0.0108  0.6318 -0.3001
                                         0.4237 -0.1201 -0.0851 -0.1215
  51. (0.00087) RY ( 3) C  3            s(  2.12%)p36.32( 77.12%)d 9.78( 20.76%)
                                         0.0000 -0.0091  0.1454 -0.0093  0.3815
                                         0.0030 -0.6105 -0.0066 -0.5028 -0.3120
                                        -0.3212  0.0822 -0.0064  0.0158
  52. (0.00060) RY ( 4) C  3            s( 78.01%)p 0.22( 17.08%)d 0.06(  4.91%)
                                         0.0000 -0.0014  0.8833  0.0027  0.2465
                                        -0.0188  0.2995 -0.0041  0.1412 -0.0967
                                        -0.0098  0.0122  0.1582 -0.1202
  53. (0.00020) RY ( 5) C  3            s(  0.46%)p30.33( 14.02%)d99.99( 85.52%)
                                         0.0000 -0.0025  0.0679 -0.0208  0.1349
                                         0.0123 -0.3218  0.0034 -0.1336  0.7032
                                         0.2796 -0.1304  0.4982 -0.1316
  54. (0.00011) RY ( 6) C  3            s(  0.00%)p 1.00( 32.92%)d 2.04( 67.08%)
                                         0.0000 -0.0006  0.0050  0.0005 -0.0017
                                        -0.0002  0.1846  0.0010 -0.5433 -0.2785
                                         0.7179 -0.1832 -0.1284 -0.1667
  55. (0.00010) RY ( 7) C  3            s(  8.22%)p 0.71(  5.83%)d10.46( 85.96%)
  56. (0.00001) RY ( 8) C  3            s(  2.51%)p 0.15(  0.38%)d38.71( 97.11%)
  57. (0.00000) RY ( 9) C  3            s(  0.00%)p 1.00(  0.04%)d99.99( 99.96%)
  58. (0.01763) RY ( 1) C  4            s(  9.02%)p10.07( 90.84%)d 0.01(  0.13%)
                                         0.0000  0.0512  0.2960  0.0501 -0.9518
                                         0.0005  0.0051  0.0003  0.0021 -0.0135
                                        -0.0052 -0.0038  0.0297 -0.0154
  59. (0.00490) RY ( 2) C  4            s(  7.74%)p10.66( 82.43%)d 1.27(  9.83%)
                                         0.0000 -0.0116  0.2779  0.0151  0.0753
                                        -0.0348 -0.8241 -0.0151 -0.3713  0.2810
                                         0.1326 -0.0093 -0.0308  0.0267
  60. (0.00188) RY ( 3) C  4            s(  0.26%)p99.99( 30.36%)d99.99( 69.37%)
                                         0.0000 -0.0005  0.0514  0.0013  0.0151
                                        -0.0148 -0.2190  0.0327  0.5042  0.3279
                                        -0.7632  0.0408  0.0154  0.0430
  61. (0.00098) RY ( 4) C  4            s( 75.02%)p 0.15( 11.45%)d 0.18( 13.53%)
                                         0.0000 -0.0032  0.8662  0.0202  0.2687
                                         0.0075  0.1940  0.0013  0.0645 -0.2775
                                        -0.0662 -0.0689 -0.1498  0.1634
  62. (0.00007) RY ( 5) C  4            s(  6.30%)p 0.89(  5.60%)d13.99( 88.10%)
  63. (0.00002) RY ( 6) C  4            s(  0.48%)p19.80(  9.55%)d99.99( 89.97%)
  64. (0.00001) RY ( 7) C  4            s(  0.00%)p 1.00( 67.44%)d 0.48( 32.56%)
  65. (0.00000) RY ( 8) C  4            s(  1.44%)p 0.15(  0.21%)d68.47( 98.35%)
  66. (0.00000) RY ( 9) C  4            s(  0.00%)p 1.00(  2.18%)d44.92( 97.82%)
  67. (0.00064) RY ( 1) N  5            s( 74.63%)p 0.33( 24.68%)d 0.01(  0.70%)
                                         0.0000 -0.0300  0.8633  0.0494  0.4797
                                         0.0021  0.1092  0.0009  0.0480 -0.0092
                                        -0.0039  0.0027  0.0715 -0.0416
  68. (0.00040) RY ( 2) N  5            s(  0.00%)p 1.00( 99.29%)d 0.01(  0.71%)
                                         0.0000  0.0000  0.0029  0.0002 -0.0021
                                        -0.0066 -0.4123  0.0154  0.9070 -0.0271
                                         0.0793 -0.0061 -0.0019 -0.0049
  69. (0.00013) RY ( 3) N  5            s( 19.84%)p 3.41( 67.62%)d 0.63( 12.53%)
                                         0.0000  0.0257  0.4447  0.0126 -0.7930
                                         0.0020  0.1990  0.0009  0.0874  0.0040
                                         0.0021  0.0025 -0.3075  0.1754
  70. (0.00003) RY ( 4) N  5            s(  3.41%)p26.70( 91.08%)d 1.62(  5.51%)
  71. (0.00000) RY ( 5) N  5            s(  0.60%)p10.58(  6.37%)d99.99( 93.03%)
  72. (0.00000) RY ( 6) N  5            s(  0.00%)p 1.00(  0.72%)d99.99( 99.28%)
  73. (0.00000) RY ( 7) N  5            s(  0.00%)p 1.00(  0.14%)d99.99( 99.86%)
  74. (0.00000) RY ( 8) N  5            s(  1.34%)p 8.07( 10.78%)d65.74( 87.88%)
  75. (0.00000) RY ( 9) N  5            s(  0.00%)p 1.00(  0.30%)d99.99( 99.69%)
  76. (0.00119) RY ( 1) H  6            s( 96.72%)p 0.03(  3.28%)
                                         0.0056  0.9834 -0.1076  0.1348  0.0551
  77. (0.00015) RY ( 2) H  6            s(  0.00%)p 1.00(100.00%)
                                        -0.0009  0.0011 -0.0487  0.3376 -0.9400
  78. (0.00012) RY ( 3) H  6            s(  0.01%)p 1.00( 99.99%)
                                         0.0066  0.0049  0.8182  0.5533  0.1563
  79. (0.00002) RY ( 4) H  6            s(  3.37%)p28.67( 96.63%)
  80. (0.00152) RY ( 1) H  7            s( 96.45%)p 0.04(  3.55%)
                                         0.0061  0.9821 -0.1563 -0.1037  0.0180
  81. (0.00018) RY ( 2) H  7            s(  0.10%)p99.99( 99.90%)
                                         0.0011  0.0321 -0.1380  0.6435  0.7522
  82. (0.00016) RY ( 3) H  7            s(  0.49%)p99.99( 99.51%)
                                         0.0082  0.0696  0.7664 -0.4107  0.4890
  83. (0.00002) RY ( 4) H  7            s(  3.05%)p31.76( 96.95%)
  84. (0.00151) RY ( 1) H  8            s( 96.63%)p 0.03(  3.37%)
                                         0.0060  0.9830 -0.1550 -0.0582 -0.0792
  85. (0.00017) RY ( 2) H  8            s(  0.06%)p99.99( 99.94%)
                                        -0.0005  0.0240 -0.2257  0.9736  0.0240
  86. (0.00014) RY ( 3) H  8            s(  0.62%)p99.99( 99.38%)
                                         0.0083  0.0782  0.7486  0.1872 -0.6311
  87. (0.00002) RY ( 4) H  8            s(  2.79%)p34.80( 97.21%)
  88. (0.00203) RY ( 1) H  9            s( 98.19%)p 0.02(  1.81%)
                                         0.0080  0.9909  0.0655  0.1113  0.0380
  89. (0.00018) RY ( 2) H  9            s(  0.01%)p 1.00( 99.99%)
                                         0.0001  0.0078  0.0172 -0.3937  0.9190
  90. (0.00007) RY ( 3) H  9            s(  0.05%)p99.99( 99.95%)
  91. (0.00005) RY ( 4) H  9            s(  1.87%)p52.55( 98.13%)
  92. (0.00232) RY ( 1) H 10            s( 98.65%)p 0.01(  1.35%)
                                         0.0086  0.9932 -0.0595 -0.0960 -0.0272
  93. (0.00019) RY ( 2) H 10            s(  0.01%)p 1.00( 99.99%)
                                         0.0006  0.0100 -0.0287  0.3826 -0.9234
  94. (0.00007) RY ( 3) H 10            s(  0.25%)p99.99( 99.75%)
  95. (0.00006) RY ( 4) H 10            s(  1.19%)p82.99( 98.81%)


 NHO DIRECTIONALITY AND BOND BENDING (deviation from line of nuclear centers at
                                      the position of maximum hybrid amplitude)

         [Thresholds for printing:  angular deviation  >  1.0 degree]
                                    p- or d-character  > 25.0%
                                    orbital occupancy  >  0.10e

                        Line of Centers        Hybrid 1             Hybrid 2
                        ---------------  -------------------  ------------------
           NBO            Theta   Phi    Theta   Phi    Dev   Theta   Phi    Dev
 ===============================================================================
   6. LP ( 1) N  5          --     --     90.4  359.2   --      --     --    --
   7. BD ( 1) C  1- C  2   90.6  358.5    90.2  359.4   1.0     --     --    --
  11. BD ( 1) C  2- C  3  109.1  304.7     --     --    --     71.0  123.4   1.2
  12. BD ( 2) C  2- C  3  109.1  304.7    23.6  271.7  88.9    22.1  269.8  89.4
  14. BD ( 1) C  3- C  4   90.0    0.0     --     --    --     90.5  181.1   1.3
  17. BD ( 2) C  4- N  5   90.5  358.8   112.9  270.6  88.1   112.8  267.4  88.9
  18. BD ( 3) C  4- N  5   90.5  358.8   157.2   87.0  88.9   157.1   93.5  88.6


 SECOND ORDER PERTURBATION THEORY ANALYSIS OF FOCK MATRIX IN NBO BASIS

     Threshold for printing:   0.50 kcal/mol
                                                          E(2) E(NL)-E(L) F(L,NL)
      Donor (L) NBO              Acceptor (NL) NBO      kcal/mol   a.u.    a.u.
 ===============================================================================

 within unit  1
    1. CR ( 1) C  1            23. BD*( 1) C  2- C  3      0.82   10.38   0.082
    1. CR ( 1) C  1            76. RY ( 1) H  6            0.71   10.20   0.076
    1. CR ( 1) C  1            80. RY ( 1) H  7            0.75   10.20   0.078
    1. CR ( 1) C  1            84. RY ( 1) H  8            0.74   10.19   0.078
    2. CR ( 1) C  2            23. BD*( 1) C  2- C  3      0.80   10.39   0.081
    2. CR ( 1) C  2            26. BD*( 1) C  3- C  4      1.14   10.26   0.096
    2. CR ( 1) C  2            27. BD*( 1) C  3- H 10      0.94   10.21   0.088
    2. CR ( 1) C  2            33. RY ( 3) C  1            1.33   10.36   0.105
    2. CR ( 1) C  2            51. RY ( 3) C  3            0.72   10.83   0.079
    2. CR ( 1) C  2            52. RY ( 4) C  3            0.80   10.34   0.081
    2. CR ( 1) C  2            88. RY ( 1) H  9            0.77   10.17   0.079
    3. CR ( 1) C  3            19. BD*( 1) C  1- C  2      1.15   10.17   0.097
    3. CR ( 1) C  3            23. BD*( 1) C  2- C  3      0.94   10.39   0.088
    3. CR ( 1) C  3            25. BD*( 1) C  2- H  9      0.72   10.22   0.076
    3. CR ( 1) C  3            28. BD*( 1) C  4- N  5      3.31   10.63   0.167
    3. CR ( 1) C  3            42. RY ( 3) C  2            1.81   10.53   0.123
    3. CR ( 1) C  3            43. RY ( 4) C  2            1.00   10.84   0.093
    3. CR ( 1) C  3            58. RY ( 1) C  4            1.01   10.29   0.091
    3. CR ( 1) C  3            92. RY ( 1) H 10            0.82   10.15   0.081
    4. CR ( 1) C  4            23. BD*( 1) C  2- C  3      0.91   10.38   0.087
    4. CR ( 1) C  4            28. BD*( 1) C  4- N  5      0.85   10.62   0.085
    4. CR ( 1) C  4            52. RY ( 4) C  3            0.78   10.33   0.080
    4. CR ( 1) C  4            67. RY ( 1) N  5            0.53   10.91   0.068
    4. CR ( 1) C  4            69. RY ( 3) N  5            0.68   10.86   0.077
    5. CR ( 1) N  5            26. BD*( 1) C  3- C  4      4.13   14.19   0.216
    5. CR ( 1) N  5            58. RY ( 1) C  4            7.12   14.22   0.284
    6. LP ( 1) N  5            26. BD*( 1) C  3- C  4     10.65    0.89   0.087
    6. LP ( 1) N  5            58. RY ( 1) C  4           13.45    0.91   0.099
    7. BD ( 1) C  1- C  2      20. BD*( 1) C  1- H  6      0.69    0.99   0.023
    7. BD ( 1) C  1- C  2      21. BD*( 1) C  1- H  7      0.60    0.98   0.022
    7. BD ( 1) C  1- C  2      22. BD*( 1) C  1- H  8      0.60    0.98   0.022
    7. BD ( 1) C  1- C  2      23. BD*( 1) C  2- C  3      2.89    1.17   0.052
    7. BD ( 1) C  1- C  2      26. BD*( 1) C  3- C  4      3.82    1.05   0.056
    7. BD ( 1) C  1- C  2      49. RY ( 1) C  3            1.65    1.51   0.044
    8. BD ( 1) C  1- H  6      23. BD*( 1) C  2- C  3      3.91    1.04   0.057
    9. BD ( 1) C  1- H  7      24. BD*( 2) C  2- C  3      3.52    0.45   0.036
    9. BD ( 1) C  1- H  7      25. BD*( 1) C  2- H  9      1.68    0.87   0.034
    9. BD ( 1) C  1- H  7      41. RY ( 2) C  2            1.04    1.20   0.032
   10. BD ( 1) C  1- H  8      24. BD*( 2) C  2- C  3      3.50    0.45   0.035
   10. BD ( 1) C  1- H  8      25. BD*( 1) C  2- H  9      1.67    0.87   0.034
   10. BD ( 1) C  1- H  8      41. RY ( 2) C  2            0.68    1.20   0.025
   11. BD ( 1) C  2- C  3      19. BD*( 1) C  1- C  2      2.02    1.05   0.041
   11. BD ( 1) C  2- C  3      20. BD*( 1) C  1- H  6      0.88    1.08   0.028
   11. BD ( 1) C  2- C  3      25. BD*( 1) C  2- H  9      1.36    1.10   0.035
   11. BD ( 1) C  2- C  3      26. BD*( 1) C  3- C  4      3.67    1.15   0.058
   11. BD ( 1) C  2- C  3      27. BD*( 1) C  3- H 10      2.30    1.09   0.045
   11. BD ( 1) C  2- C  3      28. BD*( 1) C  4- N  5      4.92    1.51   0.077
   11. BD ( 1) C  2- C  3      29. BD*( 2) C  4- N  5      1.16    0.76   0.026
   11. BD ( 1) C  2- C  3      31. RY ( 1) C  1            1.05    1.38   0.034
   11. BD ( 1) C  2- C  3      59. RY ( 2) C  4            1.90    1.40   0.046
   12. BD ( 2) C  2- C  3      21. BD*( 1) C  1- H  7      1.89    0.65   0.031
   12. BD ( 2) C  2- C  3      22. BD*( 1) C  1- H  8      1.92    0.65   0.032
   12. BD ( 2) C  2- C  3      24. BD*( 2) C  2- C  3      0.51    0.26   0.010
   12. BD ( 2) C  2- C  3      30. BD*( 3) C  4- N  5     17.85    0.34   0.069
   12. BD ( 2) C  2- C  3      32. RY ( 2) C  1            0.83    1.31   0.029
   12. BD ( 2) C  2- C  3      60. RY ( 3) C  4            1.38    1.91   0.046
   13. BD ( 1) C  2- H  9      21. BD*( 1) C  1- H  7      0.93    0.86   0.025
   13. BD ( 1) C  2- H  9      22. BD*( 1) C  1- H  8      0.94    0.86   0.025
   13. BD ( 1) C  2- H  9      23. BD*( 1) C  2- C  3      0.89    1.05   0.027
   13. BD ( 1) C  2- H  9      27. BD*( 1) C  3- H 10      5.64    0.87   0.063
   13. BD ( 1) C  2- H  9      49. RY ( 1) C  3            0.83    1.39   0.030
   14. BD ( 1) C  3- C  4      19. BD*( 1) C  1- C  2      4.05    1.03   0.058
   14. BD ( 1) C  3- C  4      23. BD*( 1) C  2- C  3      3.58    1.24   0.060
   14. BD ( 1) C  3- C  4      27. BD*( 1) C  3- H 10      0.61    1.06   0.023
   14. BD ( 1) C  3- C  4      28. BD*( 1) C  4- N  5      6.83    1.48   0.090
   14. BD ( 1) C  3- C  4      40. RY ( 1) C  2            1.52    1.60   0.044
   15. BD ( 1) C  3- H 10      23. BD*( 1) C  2- C  3      1.49    1.06   0.035
   15. BD ( 1) C  3- H 10      25. BD*( 1) C  2- H  9      4.71    0.89   0.058
   15. BD ( 1) C  3- H 10      28. BD*( 1) C  4- N  5      3.36    1.30   0.059
   15. BD ( 1) C  3- H 10      29. BD*( 2) C  4- N  5      4.94    0.55   0.047
   15. BD ( 1) C  3- H 10      40. RY ( 1) C  2            0.75    1.41   0.029
   15. BD ( 1) C  3- H 10      59. RY ( 2) C  4            1.03    1.19   0.031
   16. BD ( 1) C  4- N  5      26. BD*( 1) C  3- C  4      7.13    1.41   0.089
   16. BD ( 1) C  4- N  5      58. RY ( 1) C  4            1.58    1.43   0.042
   17. BD ( 2) C  4- N  5      23. BD*( 1) C  2- C  3      2.55    0.88   0.042
   17. BD ( 2) C  4- N  5      27. BD*( 1) C  3- H 10      3.22    0.70   0.042
   18. BD ( 3) C  4- N  5      24. BD*( 2) C  2- C  3      8.90    0.29   0.045
   18. BD ( 3) C  4- N  5      50. RY ( 2) C  3            1.07    1.22   0.032


 NATURAL BOND ORBITALS (Summary):

                                                     Principal Delocalizations
           NBO                 Occupancy    Energy   (geminal,vicinal,remote)
 ===============================================================================
 Molecular unit  1  (C4H5N)
 ------ Lewis --------------------------------------
    1. CR ( 1) C  1             1.99916    -9.80219  23(v),80(v),84(v),76(v)
    2. CR ( 1) C  2             1.99894    -9.81021  33(v),26(v),27(v),52(v)
                                                     23(g),88(v),51(v)
    3. CR ( 1) C  3             1.99874    -9.81130  28(v),42(v),19(v),58(v)
                                                     43(v),23(g),92(v),25(v)
    4. CR ( 1) C  4             1.99919    -9.80516  23(v),28(g),52(v),69(v)
                                                     67(v)
    5. CR ( 1) N  5             1.99958   -13.73969  58(v),26(v)
    6. LP ( 1) N  5             1.97078    -0.43104  58(v),26(v)
    7. BD ( 1) C  1- C  2       1.98355    -0.59483  26(v),23(g),49(v),20(g)
                                                     21(g),22(g)
    8. BD ( 1) C  1- H  6       1.98789    -0.46071  23(v)
    9. BD ( 1) C  1- H  7       1.97154    -0.46122  24(v),25(v),41(v)
   10. BD ( 1) C  1- H  8       1.97162    -0.46124  24(v),25(v),41(v)
   11. BD ( 1) C  2- C  3       1.97510    -0.69198  28(v),26(g),27(g),19(g)
                                                     59(v),25(g),29(v),31(v)
                                                     20(v)
   12. BD ( 2) C  2- C  3       1.90031    -0.26878  30(v),22(v),21(v),60(v)
                                                     32(v),24(g)
   13. BD ( 1) C  2- H  9       1.97551    -0.47592  27(v),22(v),21(v),23(g)
                                                     49(v)
   14. BD ( 1) C  3- C  4       1.98182    -0.66582  28(g),19(v),23(g),40(v)
                                                     27(g)
   15. BD ( 1) C  3- H 10       1.96140    -0.48251  29(v),25(v),28(v),23(g)
                                                     59(v),40(v)
   16. BD ( 1) C  4- N  5       1.99479    -0.95067  26(g),58(g)
   17. BD ( 2) C  4- N  5       1.98471    -0.29977  27(v),23(v)
   18. BD ( 3) C  4- N  5       1.95079    -0.29919  24(v),50(v)
 ------ non-Lewis ----------------------------------
   19. BD*( 1) C  1- C  2       0.01123     0.36203
   20. BD*( 1) C  1- H  6       0.00433     0.39057
   21. BD*( 1) C  1- H  7       0.00895     0.38234
   22. BD*( 1) C  1- H  8       0.00900     0.38219
   23. BD*( 1) C  2- C  3       0.01818     0.57684
   24. BD*( 2) C  2- C  3       0.08769    -0.00967
   25. BD*( 1) C  2- H  9       0.01892     0.41002
   26. BD*( 1) C  3- C  4       0.02807     0.45435
   27. BD*( 1) C  3- H 10       0.02441     0.39787
   28. BD*( 1) C  4- N  5       0.01074     0.81406
   29. BD*( 2) C  4- N  5       0.02571     0.06896
   30. BD*( 3) C  4- N  5       0.08831     0.06986
   31. RY ( 1) C  1             0.00335     0.68479
   32. RY ( 2) C  1             0.00122     1.04282
   33. RY ( 3) C  1             0.00038     0.54914
   34. RY ( 4) C  1             0.00010     1.14390
   35. RY ( 5) C  1             0.00003     2.02698
   36. RY ( 6) C  1             0.00000     1.63325
   37. RY ( 7) C  1             0.00000     1.94954
   38. RY ( 8) C  1             0.00000     2.03393
   39. RY ( 9) C  1             0.00000     2.13706
   40. RY ( 1) C  2             0.00488     0.93215
   41. RY ( 2) C  2             0.00186     0.74050
   42. RY ( 3) C  2             0.00144     0.71934
   43. RY ( 4) C  2             0.00050     1.02939
   44. RY ( 5) C  2             0.00018     1.79791
   45. RY ( 6) C  2             0.00017     1.59651
   46. RY ( 7) C  2             0.00004     2.12652
   47. RY ( 8) C  2             0.00000     1.82426
   48. RY ( 9) C  2             0.00000     2.04107
   49. RY ( 1) C  3             0.00512     0.91153
   50. RY ( 2) C  3             0.00101     0.91936
   51. RY ( 3) C  3             0.00087     1.02068
   52. RY ( 4) C  3             0.00060     0.52593
   53. RY ( 5) C  3             0.00020     2.02063
   54. RY ( 6) C  3             0.00011     1.41877
   55. RY ( 7) C  3             0.00010     2.12825
   56. RY ( 8) C  3             0.00001     2.11376
   57. RY ( 9) C  3             0.00000     1.81051
   58. RY ( 1) C  4             0.01763     0.48040
   59. RY ( 2) C  4             0.00490     0.71094
   60. RY ( 3) C  4             0.00188     1.63921
   61. RY ( 4) C  4             0.00098     0.86964
   62. RY ( 5) C  4             0.00007     2.48111
   63. RY ( 6) C  4             0.00002     2.26359
   64. RY ( 7) C  4             0.00001     1.03003
   65. RY ( 8) C  4             0.00000     1.71218
   66. RY ( 9) C  4             0.00000     1.61874
   67. RY ( 1) N  5             0.00064     1.10515
   68. RY ( 2) N  5             0.00040     0.79709
   69. RY ( 3) N  5             0.00013     1.05186
   70. RY ( 4) N  5             0.00003     0.98498
   71. RY ( 5) N  5             0.00000     2.40497
   72. RY ( 6) N  5             0.00000     2.27522
   73. RY ( 7) N  5             0.00000     2.10271
   74. RY ( 8) N  5             0.00000     2.48409
   75. RY ( 9) N  5             0.00000     2.15710
   76. RY ( 1) H  6             0.00119     0.39523
   77. RY ( 2) H  6             0.00015     1.66605
   78. RY ( 3) H  6             0.00012     1.69814
   79. RY ( 4) H  6             0.00002     2.17152
   80. RY ( 1) H  7             0.00152     0.39620
   81. RY ( 2) H  7             0.00018     1.70316
   82. RY ( 3) H  7             0.00016     1.70167
   83. RY ( 4) H  7             0.00002     2.16296
   84. RY ( 1) H  8             0.00151     0.38784
   85. RY ( 2) H  8             0.00017     1.69793
   86. RY ( 3) H  8             0.00014     1.68653
   87. RY ( 4) H  8             0.00002     2.15649
   88. RY ( 1) H  9             0.00203     0.35748
   89. RY ( 2) H  9             0.00018     1.56605
   90. RY ( 3) H  9             0.00007     1.82655
   91. RY ( 4) H  9             0.00005     2.23099
   92. RY ( 1) H 10             0.00232     0.34082
   93. RY ( 2) H 10             0.00019     1.57713
   94. RY ( 3) H 10             0.00007     1.95756
   95. RY ( 4) H 10             0.00006     2.16465
          -------------------------------
                 Total Lewis   35.60543  ( 98.9040%)
           Valence non-Lewis    0.33555  (  0.9321%)
[...]
 73   0.00000 : RYDBERG       4N             
 74   0.00000 : RYDBERG       4N             
 75   0.00119 : RYDBERG       5H             
 76   0.00015 : RYDBERG       5H             
 77   0.00012 : RYDBERG       5H             
 78   0.00002 : RYDBERG       5H             
 79   0.00152 : RYDBERG       6H             
 80   0.00018 : RYDBERG       6H             
 81   0.00016 : RYDBERG       6H             
 82   0.00002 : RYDBERG       6H             
 83   0.00151 : RYDBERG       7H             
 84   0.00017 : RYDBERG       7H             
 85   0.00014 : RYDBERG       7H             
 86   0.00002 : RYDBERG       7H             
 87   0.00203 : RYDBERG       8H             
 88   0.00018 : RYDBERG       8H             
 89   0.00007 : RYDBERG       8H             
 90   0.00005 : RYDBERG       8H             
 91   0.00232 : RYDBERG       9H             
 92   0.00019 : RYDBERG       9H             
 93   0.00007 : RYDBERG       9H             
 94   0.00006 : RYDBERG       9H             

------------------------------------
NBO MULLIKEN ATOM POPULATIONS PER MO
------------------------------------

                      0         1         2         3         4         5   
                   0.00000   0.00000   0.00000   0.00000   0.00000   0.00000
                   1.99916   1.99894   1.99874   1.99919   1.99958   1.98355
                  --------  --------  --------  --------  --------  --------
  0 C               100.4      -0.2      -0.0      -0.0      -0.0      51.9
  1 C                -0.3     100.7      -0.5      -0.0       0.0      46.8
  2 C                -0.0      -0.5     101.1      -0.5       0.0       2.7
  3 C                -0.0      -0.0      -0.6     100.9      -0.2       0.0
  4 N                -0.0      -0.0       0.0      -0.4     100.2      -0.0
  5 H                -0.0      -0.0      -0.0      -0.0      -0.0      -0.4
  6 H                -0.0      -0.0       0.0       0.0      -0.0      -0.1
  7 H                -0.0      -0.0       0.0       0.0      -0.0      -0.1
  8 H                 0.0      -0.0       0.0       0.0      -0.0      -0.5
  9 H                 0.0       0.0      -0.0      -0.0      -0.0      -0.3

                      6         7         8         9        10        11   
                   0.00000   0.00000   0.00000   0.00000   0.00000   0.00000
                   1.98789   1.97154   1.97162   1.97510   1.90031   1.97551
                  --------  --------  --------  --------  --------  --------
  0 C                49.8      53.0      52.9      -0.5      -0.8      -1.5
  1 C                 0.9      -0.9      -0.9      51.2      46.5      52.2
  2 C                 0.1      -0.1      -0.1      44.9      55.0      -1.6
  3 C                -0.0       0.0       0.0       6.1      -0.9      -0.6
  4 N                 0.0       0.0       0.0       0.1       0.0      -0.0
  5 H                49.4      -0.1      -0.2      -0.0       0.0      -0.0
  6 H                -0.1      48.2      -0.2      -0.0       0.0       0.0
  7 H                -0.1      -0.2      48.3      -0.0       0.0       0.0
  8 H                -0.1      -0.0      -0.0      -1.0       0.0      51.7
  9 H                 0.0       0.0       0.0      -0.8       0.1      -0.0

                     12        13        14        15        16        17   
                   0.00000   0.00000   0.00000   0.00000   0.00000   0.00000
                   1.98182   1.96140   1.99479   1.98471   1.95079   1.97078
                  --------  --------  --------  --------  --------  --------
  0 C                -0.0      -0.6       0.0       0.0      -0.0      -0.0
  1 C                 2.6      -2.5      -0.1      -0.2      -0.0       0.0
  2 C                51.1      50.0       3.1      -0.2      -0.8      -0.2
  3 C                52.5       1.3      52.8      47.6      47.9     -20.0
  4 N                -5.1       0.0      44.2      52.8      52.8     120.2
  8 H                -0.4      -0.0       0.0       0.1       0.0      -0.0
  9 H                -0.7      51.7       0.0      -0.0       0.0       0.0

                     18        19        20        21        22        23   
                   0.00000   0.00000   0.00000   0.00000   0.00000   0.00000
                   0.01123   0.00433   0.00895   0.00900   0.01818   0.08769
                  --------  --------  --------  --------  --------  --------
  0 C                49.0      43.7      43.5      43.5      -0.5      -0.3
  1 C                50.3      -0.6      -0.5      -0.5      50.2      54.5
  2 C                -0.8       0.0       0.1       0.1      51.0      46.3
  3 C                 1.8       0.0      -0.0      -0.0      -0.3      -0.6
  4 N                 0.1       0.0      -0.0      -0.0      -0.3       0.0
  5 H                -0.4      56.7       0.0       0.0       0.1       0.0
  6 H                -0.2       0.0      57.0       0.0      -0.0      -0.1
  7 H                -0.2       0.0       0.0      57.0      -0.0      -0.1
  8 H                 0.2       0.1      -0.0      -0.0      -0.2       0.1
  9 H                 0.2       0.0       0.0       0.0       0.0       0.1

                     24        25        26        27        28        29   
                   0.00000   0.00000   0.00000   0.00000   0.00000   0.00000
                   0.01892   0.02807   0.02441   0.01074   0.02571   0.08831
                  --------  --------  --------  --------  --------  --------
  0 C                 0.0       1.9       0.1       0.1       0.0      -0.0
  1 C                43.9      -0.2       1.0      -0.1      -0.4      -0.1
  2 C                 0.7      46.9      44.4       0.4       2.3      -0.2
  3 C                 0.2      51.3      -0.2      40.6      51.8      53.8
  4 N                 0.0       0.2      -0.2      59.1      46.3      46.5
  6 H                -0.0      -0.2       0.0      -0.0      -0.0       0.0
  7 H                -0.0      -0.2       0.0      -0.0      -0.0       0.0
  8 H                55.6       0.1      -0.4      -0.0       0.1       0.0
  9 H                -0.4       0.2      55.2      -0.2      -0.2       0.0

                     30        31        32        33        34        35   
                   0.00000   0.00000   0.00000   0.00000   0.00000   0.00000
                   0.00335   0.00122   0.00038   0.00010   0.00003   0.00000
                  --------  --------  --------  --------  --------  --------
  0 C               141.3     123.8     200.9     149.7     123.2     120.4
  1 C               -12.2      -4.2     -91.8      -6.7      -8.1      -3.8
  2 C                -2.7       0.0       0.3       0.2       0.1       0.1
  3 C                -1.0      -0.0      -2.0      -0.2      -0.2       0.0
  4 N                -0.2      -0.0      -0.3      -0.1      -0.0       0.0
  5 H               -11.9      -2.0      -3.7     -11.9      -8.9       0.5
  6 H                -5.6      -9.2      -0.5     -15.8      -2.9      -8.6
  7 H                -6.5      -8.3      -0.6     -15.2      -2.9      -8.5
  8 H                -0.1      -0.0      -1.3       0.1      -0.2      -0.1
  9 H                -1.2      -0.0      -1.0      -0.1       0.0      -0.0

                     36        37        38        39        40        41   
                   0.00000   0.00000   0.00000   0.00000   0.00000   0.00000
                   0.00000   0.00000   0.00000   0.00488   0.00186   0.00144
                  --------  --------  --------  --------  --------  --------
  0 C               119.6     117.2     110.1     -10.7      -4.1     -28.0
  1 C                -3.0      -2.4      -0.3     183.2     112.4     187.2
  2 C                 0.3      -0.3      -0.0     -38.7      -7.2     -44.0
  3 C                 0.0      -0.0      -0.0      -0.1      -0.1      -6.1
  4 N                -0.0      -0.0      -0.0      -0.1      -0.0      -0.2
  5 H                -9.6      -7.1      -1.7      -0.2       0.0       0.4
  6 H                -3.5      -3.5      -4.0       0.0      -0.1      -0.3
  7 H                -3.8      -3.9      -4.0       0.0      -0.1      -0.4
  8 H                 0.0      -0.0      -0.0     -32.7      -0.8      -8.1
  9 H                -0.1       0.0      -0.0      -0.7      -0.1      -0.7

                     42        43        44        45        46        47   
                   0.00000   0.00000   0.00000   0.00000   0.00000   0.00000
                   0.00050   0.00018   0.00017   0.00004   0.00000   0.00000
                  --------  --------  --------  --------  --------  --------
  0 C               -49.7     -20.3      -5.9      -3.8      -0.2     -10.9
  1 C               227.8     137.3     109.7     125.6     104.6     126.0
  2 C               -78.5     -13.2      -3.9     -11.6      -1.6     -12.3
  3 C                 0.4      -0.2      -0.0       2.8      -0.0       0.3
  4 N                 0.0      -0.1      -0.0       0.1      -0.0      -0.0
  5 H                 0.1       0.5      -0.1       0.0      -0.0       0.0
  6 H                 0.2      -0.0       0.0      -0.0      -0.0       0.0
  7 H                 0.2      -0.4       0.4      -0.0      -0.0       0.0
  8 H                -1.9      -3.8      -0.1     -13.1      -2.6      -3.2
  9 H                 1.3       0.1       0.0      -0.1      -0.1       0.0

                     48        49        50        51        52        53   
                   0.00000   0.00000   0.00000   0.00000   0.00000   0.00000
                   0.00512   0.00101   0.00087   0.00060   0.00020   0.00011
                  --------  --------  --------  --------  --------  --------
  0 C                -1.1      -0.2      -2.8       1.0      -0.3       0.0
  1 C               -42.1      -8.9     -26.5    -109.2      -5.0      -3.1
  2 C               194.5     118.8     192.9     367.0     116.4     108.6
  3 C               -24.3      -7.5     -43.4    -139.8      -4.7      -5.1
  4 N                -2.8      -0.5      -5.4     -18.9      -0.4      -0.3
  5 H                -0.2      -0.0      -0.1      -0.0       0.0      -0.0
  6 H                 0.0      -0.1      -0.1      -0.3       0.0      -0.0
  7 H                 0.0      -0.2       0.0      -0.3       0.0      -0.0
  8 H                -0.9      -0.1       0.1       2.8       0.1      -0.0
  9 H               -23.2      -1.3     -14.6      -2.3      -6.1      -0.0

                     54        55        56        57        58        59   
                   0.00000   0.00000   0.00000   0.00000   0.00000   0.00000
                   0.00010   0.00001   0.00000   0.01763   0.00490   0.00188
                  --------  --------  --------  --------  --------  --------
  0 C                 2.1      -0.0      -0.0      -0.6      -0.6      -0.0
  1 C               -11.8      -2.6      -1.2      -1.8      -1.3      -0.0
  2 C               135.6     115.0     104.5     -28.6     -19.0      -3.4
  3 C               -11.1      -8.9      -0.2     285.9     131.0     109.8
  4 N                -0.6      -1.1      -0.0    -155.5      -8.0      -6.3
  8 H                -0.0      -0.0      -0.0       0.1      -2.0      -0.0
  9 H               -13.8      -2.3      -3.0       0.5      -0.1      -0.0

                     60        61        62        63        64        65   
                   0.00000   0.00000   0.00000   0.00000   0.00000   0.00000
                   0.00098   0.00007   0.00002   0.00001   0.00000   0.00000
                  --------  --------  --------  --------  --------  --------
  0 C                -1.8      -0.2      -0.0       0.0      -0.2      -0.0
  1 C                 0.4      -0.2       0.6       0.2      -0.7      -0.0
  2 C              -152.4     -19.9      -7.4      -7.3      -2.0      -0.2
  3 C               251.6     124.3     111.6     112.9     103.4     100.6
  4 N                 6.1      -4.0      -5.0      -5.7      -0.4      -0.4
  8 H                -1.5       0.1      -0.2      -0.0      -0.1      -0.0
  9 H                -2.4      -0.1       0.3      -0.1      -0.1       0.0

                     66        67        68        69        70        71   
                   0.00000   0.00000   0.00000   0.00000   0.00000   0.00000
                   0.00064   0.00040   0.00013   0.00003   0.00000   0.00000
                  --------  --------  --------  --------  --------  --------
  0 C                -0.5       0.0      -0.0       0.0      -0.0       0.0
  2 C               -34.6      -0.5       2.8      -1.9      -0.0      -0.0
  3 C              -120.0      -8.6      -4.7     -13.3      -3.3      -3.3
  4 N               255.1     109.1     102.0     115.3     103.3     103.3

                     72        73        74        75        76        77   
                   0.00000   0.00000   0.00000   0.00000   0.00000   0.00000
                   0.00000   0.00000   0.00000   0.00119   0.00015   0.00012
                  --------  --------  --------  --------  --------  --------
  0 C                 0.0      -0.0      -0.0     -36.2      -3.0      -3.1
  1 C                -0.0      -0.0      -0.0       0.7      -0.2      -0.3
  2 C                -0.0      -0.2      -0.0      -0.1      -0.0      -0.1
  3 C                -0.4      -3.5      -1.3      -0.1      -0.0       0.0
  4 N               100.4     103.7     101.3      -0.0      -0.0      -0.0
  5 H                -0.0      -0.0      -0.0     137.6     103.8     104.3
  6 H                -0.0      -0.0      -0.0      -0.4      -0.3      -0.4
  7 H                -0.0      -0.0      -0.0      -0.3      -0.3      -0.4
  8 H                -0.0      -0.0      -0.0      -1.2      -0.0      -0.0

                     78        79        80        81        82        83   
                   0.00000   0.00000   0.00000   0.00000   0.00000   0.00000
                   0.00002   0.00152   0.00018   0.00016   0.00002   0.00151
                  --------  --------  --------  --------  --------  --------
  0 C                -8.3     -34.2      -2.9      -3.7      -8.0     -34.2
  1 C                -0.1      -0.0      -0.2       0.0      -0.1       0.0
  2 C                -0.1      -0.6      -0.1       0.1       0.0      -0.6
  5 H               108.9      -0.4      -0.2      -0.4      -0.1      -0.4
  6 H                -0.1     135.6     104.1     104.5     108.4      -0.2
  7 H                -0.1      -0.2      -0.5      -0.5      -0.1     135.6
  9 H                -0.0      -0.2      -0.0      -0.0      -0.0      -0.3

                     84        85        86        87        88        89   
                   0.00000   0.00000   0.00000   0.00000   0.00000   0.00000
                   0.00017   0.00014   0.00002   0.00203   0.00018   0.00007
                  --------  --------  --------  --------  --------  --------
  0 C                -3.0      -3.7      -8.1      -0.8      -0.1      -0.9
  1 C                -0.2      -0.0      -0.1     -45.1      -3.1      -3.6
  2 C                -0.1       0.1       0.0       2.3      -0.1      -0.5
  3 C                -0.1      -0.0      -0.0      -3.7      -0.0      -0.1
  5 H                -0.3      -0.3      -0.1      -1.2      -0.0      -0.0
  6 H                -0.5      -0.5      -0.1       0.0      -0.0      -0.0
  7 H               104.1     104.6     108.5       0.0      -0.0      -0.0
  8 H                -0.0      -0.0      -0.0     148.4     103.4     105.2
  9 H                -0.0      -0.0      -0.0       0.2      -0.0      -0.0

                     90        91        92        93        94   
                   0.00000   0.00000   0.00000   0.00000   0.00000
                   0.00005   0.00232   0.00019   0.00007   0.00006
                  --------  --------  --------  --------  --------
  0 C                -0.1      -2.3      -0.0       0.0      -0.1
  1 C                -8.5       0.5      -0.1      -0.7       0.1
  2 C                -0.0     -45.2      -3.1      -5.2      -7.5
  3 C                -0.2      -0.8      -0.1      -1.0      -0.4
  4 N                -0.0       0.2      -0.0      -0.1      -0.1
  6 H                -0.0      -0.3      -0.0      -0.0      -0.0
  7 H                -0.0      -0.3      -0.0      -0.0      -0.0
  8 H               108.9       0.2      -0.0      -0.0      -0.0
  9 H                -0.0     147.9     103.3     107.0     108.0

Storing NBOs: 0106.nbo
                                    *** NBOs were stored ***

                                *** returned from GENNBO program ***

-------
TIMINGS
-------

Total SCF time: 0 days 0 hours 0 min 2 sec 

Total time                  ....       2.712 sec
Sum of individual times     ....       3.023 sec  (111.5%)

Fock matrix formation       ....       1.730 sec  ( 63.8%)
  Coulomb formation         ....       1.047 sec  ( 60.5% of F)
  Split-RI-J                ....       1.043 sec  ( 60.3% of F)
  XC integration            ....       0.681 sec  ( 39.3% of F)
    Basis function eval.    ....       0.241 sec  ( 35.5% of XC)
    Density eval.           ....       0.119 sec  ( 17.5% of XC)
    XC-Functional eval.     ....       0.060 sec  (  8.8% of XC)
    XC-Potential eval.      ....       0.242 sec  ( 35.5% of XC)
Diagonalization             ....       0.012 sec  (  0.5%)
Density matrix formation    ....       0.001 sec  (  0.0%)
Population analysis         ....       0.638 sec  ( 23.5%)
Initial guess               ....       0.233 sec  (  8.6%)
Orbital Transformation      ....       0.000 sec  (  0.0%)
Orbital Orthonormalization  ....       0.000 sec  (  0.0%)
DIIS solution               ....       0.003 sec  (  0.1%)
SOSCF solution              ....       0.004 sec  (  0.1%)
Grid generation             ....       0.403 sec  ( 14.8%)
           ************************************************************
           *              Shut down parallel processing               *
           ************************************************************

-------------------------   --------------------
FINAL SINGLE POINT ENERGY      -209.719267420022
-------------------------   --------------------


                            ***************************************
                            *     ORCA property calculations      *
                            ***************************************

                                    ---------------------
                                    Active property flags
                                    ---------------------
   (+) Dipole Moment


------------------------------------------------------------------------------
                       ORCA ELECTRIC PROPERTIES CALCULATION
------------------------------------------------------------------------------

Dipole Moment Calculation                       ... on
Quadrupole Moment Calculation                   ... off
Polarizability Calculation                      ... off
GBWName                                         ... 0106.gbw
Electron density file                           ... 0106.scfp.tmp

-------------
DIPOLE MOMENT
-------------
                                X             Y             Z
Electronic contribution:      6.86032      -1.71206      -0.71904
Nuclear contribution   :     -8.59333       1.93699       0.81321
                        -----------------------------------------
Total Dipole Moment    :     -1.73301       0.22493       0.09417
                        -----------------------------------------
Magnitude (a.u.)       :      1.75008
Magnitude (Debye)      :      4.44834


Timings for individual modules:

Sum of individual times         ...        3.732 sec (=   0.062 min)
GTO integral calculation        ...        0.459 sec (=   0.008 min)  12.3 %
SCF iterations                  ...        3.272 sec (=   0.055 min)  87.7 %
                             ****ORCA TERMINATED NORMALLY****
TOTAL RUN TIME: 0 days 0 hours 0 minutes 4 seconds 148 msec
