
                                 *****************
                                 * O   R   C   A *
                                 *****************

           --- An Ab Initio, DFT and Semiempirical electronic structure package ---

                  #######################################################
                  #                        -***-                        #
                  #  Department of molecular theory and spectroscopy    #
                  #              Directorship: Frank Neese              #
                  # Max Planck Institute for Chemical Energy Conversion #
                  #                  D-45470 Muelheim/Ruhr              #
                  #                       Germany                       #
                  #                                                     #
                  #                  All rights reserved                #
                  #                        -***-                        #
                  #######################################################


                         Program Version 3.0.3 - RELEASE   -


 With contributions from (in alphabetic order):
   Ute Becker             : Parallelization
   Dmytro Bykov           : SCF Hessian
   Dmitry Ganyushin       : Spin-Orbit,Spin-Spin,Magnetic field MRCI
   Andreas Hansen         : Spin unrestricted coupled pair/coupled cluster methods
   Dimitrios Liakos       : Extrapolation schemes; parallel MDCI
   Robert Izsak           : Overlap fitted RIJCOSX, COSX-SCS-MP3
   Christian Kollmar      : KDIIS, OOCD, Brueckner-CCSD(T), CCSD density
   Simone Kossmann        : Meta GGA functionals, TD-DFT gradient, OOMP2, MP2 Hessian
   Taras Petrenko         : DFT Hessian,TD-DFT gradient, ASA and ECA modules, normal mode analysis, Resonance Raman, ABS, FL, XAS/XES, NRVS
   Christoph Reimann      : Effective Core Potentials
   Michael Roemelt        : Restricted open shell CIS
   Christoph Riplinger    : Improved optimizer, TS searches, QM/MM, DLPNO-CCSD
   Barbara Sandhoefer     : DKH picture change effects
   Igor Schapiro          : Molecular dynamics
   Kantharuban Sivalingam : CASSCF convergence, NEVPT2
   Boris Wezisla          : Elementary symmetry handling
   Frank Wennmohs         : Technical directorship


 We gratefully acknowledge several colleagues who have allowed us to
 interface, adapt or use parts of their codes:
   Stefan Grimme, W. Hujo, H. Kruse, T. Risthaus : VdW corrections, initial TS optimization,
                                                   DFT functionals, gCP
   Ed Valeev                                     : LibInt (2-el integral package), F12 methods
   Garnet Chan, S. Sharma, R. Olivares           : DMRG
   Ulf Ekstrom                                   : XCFun DFT Library
   Mihaly Kallay                                 : mrcc  (arbitrary order and MRCC methods)
   Andreas Klamt, Michael Diedenhofen            : otool_cosmo (COSMO solvation model)
   Frank Weinhold                                : gennbo (NPA and NBO analysis)
   Christopher J. Cramer and Donald G. Truhlar   : smd solvation model


 Your calculation uses the libint2 library for the computation of 2-el integrals
 For citations please refer to: http://libint.valeyev.net

 This ORCA versions uses:
   CBLAS   interface :  Fast vector & matrix operations
   LAPACKE interface :  Fast linear algebra routines
   SCALAPACK package :  Parallel linear algebra routines


Your calculation utilizes the basis: Ahlrichs-VDZ
Cite in your paper:
H - Kr: A. Schaefer, H. Horn and R. Ahlrichs, J. Chem. Phys. 97, 2571 (1992).

Your calculation utilizes the basis: Ahlrichs SVPalls1+f
Cite in your paper:
Rb - Xe: A. Schaefer, C. Huber and R. Ahlrichs, J. Chem. Phys. 100, 5829 (1994).

================================================================================
                                        WARNINGS
                       Please study these warnings very carefully!
================================================================================
Now building the actual basis set


INFO   : the flag for use of LIBINT has been found!

================================================================================
                                       INPUT FILE
================================================================================
NAME = 0186.inp
|  1> ! RI PBE def2-SVP def2-SVP/J NBO PAL2
|  2> % maxcore 2000
|  3> % output
|  4>     # printlevel mini
|  5>     print[ P_Basis ] 0
|  6>     print[ P_SCFInfo ] 1
|  7>     print[ P_SCFIterInfo ] 1
|  8>     print[ P_OrbEn ] 0
|  9>     print[ P_Cartesian ] 0
| 10> end
| 11> *xyz 0 1
| 12>  C        1.0615510000     0.0427450000     0.0254220000 
| 13>  C        2.5634090000     0.0642680000     0.0447820000 
| 14>  C        3.3086350000     1.0280950000     0.9119670000 
| 15>  N        3.1442900000    -0.7767920000    -0.7119490000 
| 16>  O        4.5290340000    -0.6820530000    -0.6267130000 
| 17>  H        0.6512360000     0.7933800000     0.7007870000 
| 18>  H        0.6816360000    -0.9348400000     0.3292950000 
| 19>  H        0.6816320000     0.2420120000    -0.9787200000 
| 20>  H        2.6297790000     1.6609940000     1.4814150000 
| 21>  H        3.9628270000     1.6590450000     0.3043750000 
| 22>  H        3.9628380000     0.4902980000     1.6033610000 
| 23>  H        4.8220320000    -1.3620530000    -1.2385320000 
| 24> *
| 25> 
| 26>                          ****END OF INPUT****
================================================================================

                       ****************************
                       * Single Point Calculation *
                       ****************************

--------------------------------
INTERNAL COORDINATES (ANGSTROEM)
--------------------------------
 C      0   0   0   0.000000     0.000     0.000
 C      1   0   0   1.502137     0.000     0.000
 C      2   1   0   1.495438   120.994     0.000
 N      2   1   3   1.271789   116.073   180.000
 O      4   2   1   1.390596   111.919   180.000
 H      1   2   3   1.089922   111.010     0.000
 H      1   2   3   1.091946   110.922   239.604
 H      1   2   3   1.091946   110.922   120.396
 H      3   2   1   1.088888   111.542     0.000
 H      3   2   1   1.093267   110.358   238.473
 H      3   2   1   1.093267   110.358   121.527
 H      5   4   2   0.960505   102.503   180.000

---------------------------
INTERNAL COORDINATES (A.U.)
---------------------------
 C      0   0   0   0.000000     0.000     0.000
 C      1   0   0   2.838628     0.000     0.000
 C      2   1   0   2.825968   120.994     0.000
 N      2   1   3   2.403332   116.073   180.000
 O      4   2   1   2.627845   111.919   180.000
 H      1   2   3   2.059653   111.010     0.000
 H      1   2   3   2.063479   110.922   239.604
 H      1   2   3   2.063480   110.922   120.396
 H      3   2   1   2.057701   111.542     0.000
 H      3   2   1   2.065976   110.358   238.473
 H      3   2   1   2.065975   110.358   121.527
 H      5   4   2   1.815092   102.503   180.000



           ************************************************************
           *        Program running with 2 parallel MPI-processes     *
           *              working on a common directory               *
           ************************************************************
------------------------------------------------------------------------------
                           ORCA GTO INTEGRAL CALCULATION
                           -- RI-GTO INTEGRALS CHOSEN --
------------------------------------------------------------------------------

                         BASIS SET STATISTICS AND STARTUP INFO

Gaussian basis set:
 # of primitive gaussian shells          ...   95
 # of primitive gaussian functions       ...  169
 # of contracted shells                  ...   51
 # of contracted basis functions         ...  105
 Highest angular momentum                ...    2
 Maximum contraction depth               ...    5
Auxiliary gaussian basis set:
 # of primitive gaussian shells          ...  176
 # of primitive gaussian functions       ...  462
 # of contracted shells                  ...  110
 # of contracted aux-basis functions     ...  322
 Highest angular momentum                ...    4
 Maximum contraction depth               ...    7
Ratio of auxiliary to basis functions    ...  3.07
Integral package used                  ... LIBINT
 One Electron integrals                  ... done
 Ordering auxiliary basis shells         ... done
 Integral threshhold             Thresh  ...  1.000e-10
 Primitive cut-off               TCut    ...  1.000e-11
 Pre-screening matrix                    ... done
 Shell pair data                         ... 
 Ordering of the shell pairs             ... done (   0.000 sec) 1308 of 1326 pairs
 Determination of significant pairs      ... done (   0.000 sec)
 Creation of shell pair data             ... done (   0.000 sec)
 Storage of shell pair data              ... done (   0.000 sec)
 Shell pair data done in (   0.001 sec)
 Computing two index integrals           ... done
 Cholesky decomposition of the V-matrix  ... done


Timings:
 Total evaluation time                   ...   0.131 sec (  0.002 min)
 One electron matrix time                ...   0.009 sec (  0.000 min) =  6.7%
 Schwartz matrix evaluation time         ...   0.071 sec (  0.001 min) = 53.9%
 Two index repulsion integral time       ...   0.002 sec (  0.000 min) =  1.6%
 Cholesky decomposition of V             ...   0.002 sec (  0.000 min) =  1.2%
 Three index repulsion integral time     ...   0.000 sec (  0.000 min) =  0.0%

           ************************************************************
           *              Shut down parallel processing               *
           ************************************************************


           ************************************************************
           *        Program running with 2 parallel MPI-processes     *
           *              working on a common directory               *
           ************************************************************
-------------------------------------------------------------------------------
                                 ORCA SCF
-------------------------------------------------------------------------------

------------
SCF SETTINGS
------------
Hamiltonian:
 Density Functional     Method          .... DFT(GTOs)
 Exchange Functional    Exchange        .... PBE
   PBE kappa parameter  XKappa          ....  0.804000
 Correlation Functional Correlation     .... PBE
 LDA part of GGA corr.  LDAOpt          .... PW91-LDA
 Gradients option       PostSCFGGA      .... off
   NL short-range parameter             ....  6.400000
 RI-approximation to the Coulomb term is turned on
   Number of auxiliary basis functions  .... 322


General Settings:
 Integral files         IntName         .... 0186
 Hartree-Fock type      HFTyp           .... RHF
 Total Charge           Charge          ....    0
 Multiplicity           Mult            ....    1
 Number of Electrons    NEL             ....   40
 Basis Dimension        Dim             ....  105
 Nuclear Repulsion      ENuc            ....    179.1901386614 Eh

Convergence Acceleration:
 DIIS                   CNVDIIS         .... on
   Start iteration      DIISMaxIt       ....    12
   Startup error        DIISStart       ....  0.200000
   # of expansion vecs  DIISMaxEq       ....     5
   Bias factor          DIISBfac        ....   1.050
   Max. coefficient     DIISMaxC        ....  10.000
 Newton-Raphson         CNVNR           .... off
 SOSCF                  CNVSOSCF        .... on
   Start iteration      SOSCFMaxIt      ....   150
   Startup grad/error   SOSCFStart      ....  0.003300
 Level Shifting         CNVShift        .... on
   Level shift para.    LevelShift      ....    0.2500
   Turn off err/grad.   ShiftErr        ....    0.0010
 Zerner damping         CNVZerner       .... off
 Static damping         CNVDamp         .... on
   Fraction old density DampFac         ....    0.7000
   Max. Damping (<1)    DampMax         ....    0.9800
   Min. Damping (>=0)   DampMin         ....    0.0000
   Turn off err/grad.   DampErr         ....    0.1000
 Fernandez-Rico         CNVRico         .... off

SCF Procedure:
 Maximum # iterations   MaxIter         ....   125
 SCF integral mode      SCFMode         .... Direct
   Integral package                     .... LIBINT
 Reset frequeny         DirectResetFreq ....    20
 Integral Threshold     Thresh          ....  1.000e-10 Eh
 Primitive CutOff       TCut            ....  1.000e-11 Eh

Convergence Tolerance:
 Convergence Check Mode ConvCheckMode   .... Total+1el-Energy
 Energy Change          TolE            ....  1.000e-06 Eh
 1-El. energy change                    ....  1.000e-03 Eh
 Orbital Gradient       TolG            ....  5.000e-05
 Orbital Rotation angle TolX            ....  5.000e-05
 DIIS Error             TolErr          ....  1.000e-06


Diagonalization of the overlap matrix:
Smallest eigenvalue                        ... 2.661e-03
Time for diagonalization                   ...    0.010 sec
Threshold for overlap eigenvalues          ... 1.000e-08
Number of eigenvalues below threshold      ... 0
Time for construction of square roots      ...    0.002 sec
Total time needed                          ...    0.012 sec

-------------------
DFT GRID GENERATION
-------------------

General Integration Accuracy     IntAcc      ...  4.340
Radial Grid Type                 RadialGrid  ... Gauss-Chebyshev
Angular Grid (max. acc.)         AngularGrid ... Lebedev-110
Angular grid pruning method      GridPruning ... 3 (G Style)
Weight generation scheme         WeightScheme... Becke
Basis function cutoff            BFCut       ...    1.0000e-10
Integration weight cutoff        WCut        ...    1.0000e-14
Grids for H and He will be reduced by one unit

# of grid points (after initial pruning)     ...  13944 (   0.0 sec)
# of grid points (after weights+screening)   ...  13113 (   0.0 sec)
nearest neighbour list constructed           ...    0.0 sec
Grid point re-assignment to atoms done       ...    0.0 sec
Grid point division into batches done        ...    0.0 sec
Reduced shell lists constructed in    0.0 sec

Total number of grid points                  ...    13113
Total number of batches                      ...      211
Average number of points per batch           ...       62
Average number of grid points per atom       ...     1093
Average number of shells per batch           ...    42.82 (83.97%)
Average number of basis functions per batch  ...    88.32 (84.11%)
Average number of large shells per batch     ...    36.02 (84.11%)
Average number of large basis fcns per batch ...    72.75 (82.37%)
Maximum spatial batch extension              ...  18.47, 17.52, 18.30 au
Average spatial batch extension              ...   1.45,  1.53,  1.60 au

Time for grid setup =    0.095 sec

------------------------------
INITIAL GUESS: MODEL POTENTIAL
------------------------------
Loading Hartree-Fock densities                     ... done
Calculating cut-offs                               ... done
Setting up the integral package                    ... done
Initializing the effective Hamiltonian             ... done
Starting the Coulomb interaction                   ... done (   0.0 sec)
Reading the grid                                   ... done
Mapping shells                                     ... done
Starting the XC term evaluation                    ... done (   0.1 sec)
  promolecular density results
     # of electrons  =     39.994974100
     EX              =    -32.065029090
     EC              =     -1.307800761
     EX+EC           =    -33.372829850
Transforming the Hamiltonian                       ... done (   0.0 sec)
Diagonalizing the Hamiltonian                      ... done (   0.0 sec)
Back transforming the eigenvectors                 ... done (   0.0 sec)
Now organizing SCF variables                       ... done
                      ------------------
                      INITIAL GUESS DONE (   0.3 sec)
                      ------------------
--------------
SCF ITERATIONS
--------------
ITER       Energy         Delta-E        Max-DP      RMS-DP      [F,P]     Damp
               ***  Starting incremental Fock matrix formation  ***
  0   -247.8385802518   0.000000000000 0.07044108  0.00274638  0.1571586 0.7000
  1   -247.8989107934  -0.060330541636 0.04095927  0.00194652  0.0751590 0.7000
                               ***Turning on DIIS***
  2   -247.9215191166  -0.022608323184 0.04845123  0.00320720  0.0239456 0.0000
  3   -247.9527564045  -0.031237287875 0.03242146  0.00132393  0.0464408 0.0000
  4   -247.9631216551  -0.010365250585 0.00723661  0.00043374  0.0082911 0.0000
  5   -247.9635946781  -0.000473023021 0.00363551  0.00017042  0.0057722 0.0000
                      *** Initiating the SOSCF procedure ***
                           *** Shutting down DIIS ***
                      *** Re-Reading the Fockian *** 
                      *** Removing any level shift *** 
ITER      Energy       Delta-E        Grad      Rot      Max-DP    RMS-DP
  6   -247.96366639  -0.0000717120  0.000385  0.000385  0.000866  0.000056
               *** Restarting incremental Fock matrix formation ***
  7   -247.96367145  -0.0000050556  0.000106  0.000532  0.000595  0.000039
  8   -247.96367184  -0.0000003950  0.000121  0.000539  0.000353  0.000016
  9   -247.96367190  -0.0000000613  0.000198  0.000574  0.000213  0.000016
 10   -247.96367205  -0.0000001437  0.000079  0.000130  0.000182  0.000008
                 **** Energy Check signals convergence ****
              ***Rediagonalizing the Fockian in SOSCF/NRSCF***

               *****************************************************
               *                     SUCCESS                       *
               *           SCF CONVERGED AFTER  11 CYCLES          *
               *****************************************************

Setting up the final grid:

General Integration Accuracy     IntAcc      ...  4.670
Radial Grid Type                 RadialGrid  ... Gauss-Chebyshev
Angular Grid (max. acc.)         AngularGrid ... Lebedev-302
Angular grid pruning method      GridPruning ... 3 (G Style)
Weight generation scheme         WeightScheme... Becke
Basis function cutoff            BFCut       ...    1.0000e-10
Integration weight cutoff        WCut        ...    1.0000e-14
Grids for H and He will be reduced by one unit

# of grid points (after initial pruning)     ...  54818 (   0.0 sec)
# of grid points (after weights+screening)   ...  51261 (   0.0 sec)
nearest neighbour list constructed           ...    0.0 sec
Grid point re-assignment to atoms done       ...    0.0 sec
Grid point division into batches done        ...    0.2 sec
Reduced shell lists constructed in    0.3 sec

Total number of grid points                  ...    51261
Total number of batches                      ...      807
Average number of points per batch           ...       63
Average number of grid points per atom       ...     4272
Average number of shells per batch           ...    40.18 (78.79%)
Average number of basis functions per batch  ...    82.18 (78.26%)
Average number of large shells per batch     ...    32.74 (81.47%)
Average number of large basis fcns per batch ...    65.47 (79.66%)
Maximum spatial batch extension              ...  16.06, 15.22, 16.32 au
Average spatial batch extension              ...   0.94,  0.98,  1.03 au

Final grid set up in    0.4 sec
Final integration                            ... done (   0.2 sec)
Change in XC energy                          ...     0.000506380
Integrated number of electrons               ...    40.000015391
Previous integrated no of electrons          ...    40.001504082

----------------
TOTAL SCF ENERGY
----------------

Total Energy       :         -247.96316570 Eh           -6747.42077 eV

Components:
Nuclear Repulsion  :          179.19013866 Eh            4876.01156 eV
Electronic Energy  :         -427.15330437 Eh          -11623.43234 eV

One Electron Energy:         -691.26578712 Eh          -18810.29836 eV
Two Electron Energy:          264.11248276 Eh            7186.86603 eV

Virial components:
Potential Energy   :         -493.86909367 Eh          -13438.86126 eV
Kinetic Energy     :          245.90592797 Eh            6691.44049 eV
Virial Ratio       :            2.00836595


DFT components:
N(Alpha)           :       20.000007695276 electrons
N(Beta)            :       20.000007695276 electrons
N(Total)           :       40.000015390553 electrons
E(X)               :      -32.708554324371 Eh       
E(C)               :       -1.324821137484 Eh       
E(XC)              :      -34.033375461855 Eh       

---------------
SCF CONVERGENCE
---------------

  Last Energy change         ...   -3.8675e-08  Tolerance :   1.0000e-06
  Last MAX-Density change    ...    1.2601e-04  Tolerance :   1.0000e-05
  Last RMS-Density change    ...    5.8411e-06  Tolerance :   1.0000e-06
  Last Orbital Gradient      ...    6.9659e-05  Tolerance :   5.0000e-05
  Last Orbital Rotation      ...    1.0920e-04  Tolerance :   5.0000e-05

             **** THE GBW FILE WAS UPDATED (0186.gbw) ****
             **** DENSITY FILE WAS UPDATED (0186.scfp.tmp) ****
             **** ENERGY FILE WAS UPDATED (0186.en.tmp) ****

                    ********************************
                    * MULLIKEN POPULATION ANALYSIS *
                    ********************************

-----------------------
MULLIKEN ATOMIC CHARGES
-----------------------
   0 C :    0.074505
   1 C :   -0.278387
   2 C :    0.093866
   3 N :   -0.058443
   4 O :   -0.190563
   5 H :    0.011424
   6 H :    0.041451
   7 H :    0.041457
   8 H :    0.011195
   9 H :    0.042380
  10 H :    0.041715
  11 H :    0.169399
Sum of atomic charges:   -0.0000000

--------------------------------
MULLIKEN REDUCED ORBITAL CHARGES
--------------------------------
  0 C s       :     2.939207  s :     2.939207
      pz      :     1.007687  p :     2.962361
      px      :     0.953430
      py      :     1.001245
      dz2     :     0.004471  d :     0.023926
      dxz     :     0.004998
      dyz     :     0.003845
      dx2y2   :     0.005753
      dxy     :     0.004859
  1 C s       :     3.169748  s :     3.169748
      pz      :     1.006430  p :     3.051084
      px      :     1.032526
      py      :     1.012127
      dz2     :     0.010831  d :     0.057555
      dxz     :     0.011631
      dyz     :     0.008906
      dx2y2   :     0.013487
      dxy     :     0.012700
  2 C s       :     2.907727  s :     2.907727
      pz      :     1.002148  p :     2.974623
      px      :     0.976737
      py      :     0.995738
      dz2     :     0.002024  d :     0.023783
      dxz     :     0.006771
      dyz     :     0.006486
      dx2y2   :     0.001690
      dxy     :     0.006812
  3 N s       :     3.624003  s :     3.624003
      pz      :     1.273447  p :     3.390990
      px      :     0.820342
      py      :     1.297201
      dz2     :     0.008102  d :     0.043451
      dxz     :     0.008353
      dyz     :     0.005519
      dx2y2   :     0.012990
      dxy     :     0.008487
  4 O s       :     3.741546  s :     3.741546
      pz      :     1.644699  p :     4.431633
      px      :     1.190700
      py      :     1.596234
      dz2     :     0.002132  d :     0.017384
      dxz     :     0.003352
      dyz     :     0.003053
      dx2y2   :     0.005322
      dxy     :     0.003524
  5 H s       :     0.964719  s :     0.964719
      pz      :     0.008780  p :     0.023858
      px      :     0.005569
      py      :     0.009509
  6 H s       :     0.934228  s :     0.934228
      pz      :     0.006467  p :     0.024321
      px      :     0.005596
      py      :     0.012258
  7 H s       :     0.934153  s :     0.934153
      pz      :     0.012626  p :     0.024390
      px      :     0.005604
      py      :     0.006159
  8 H s       :     0.965139  s :     0.965139
      pz      :     0.007501  p :     0.023665
      px      :     0.008236
      py      :     0.007929
  9 H s       :     0.933208  s :     0.933208
      pz      :     0.007828  p :     0.024412
      px      :     0.008606
      py      :     0.007978
 10 H s       :     0.933780  s :     0.933780
      pz      :     0.008660  p :     0.024505
      px      :     0.008644
      py      :     0.007201
 11 H s       :     0.763875  s :     0.763875
      pz      :     0.025818  p :     0.066725
      px      :     0.013567
      py      :     0.027341


                     *******************************
                     * LOEWDIN POPULATION ANALYSIS *
                     *******************************

----------------------
LOEWDIN ATOMIC CHARGES
----------------------
   0 C :   -0.061758
   1 C :   -0.064868
   2 C :   -0.075621
   3 N :   -0.039190
   4 O :   -0.060011
   5 H :    0.029403
   6 H :    0.042010
   7 H :    0.041971
   8 H :    0.028343
   9 H :    0.044386
  10 H :    0.044100
  11 H :    0.071235

-------------------------------
LOEWDIN REDUCED ORBITAL CHARGES
-------------------------------
  0 C s       :     2.835591  s :     2.835591
      pz      :     1.072523  p :     3.157968
      px      :     1.014405
      py      :     1.071041
      dz2     :     0.013453  d :     0.068198
      dxz     :     0.012850
      dyz     :     0.011095
      dx2y2   :     0.018185
      dxy     :     0.012614
  1 C s       :     2.874421  s :     2.874421
      pz      :     0.998148  p :     3.049876
      px      :     1.042081
      py      :     1.009647
      dz2     :     0.022475  d :     0.140571
      dxz     :     0.027161
      dyz     :     0.025706
      dx2y2   :     0.034554
      dxy     :     0.030674
  2 C s       :     2.833290  s :     2.833290
      pz      :     1.058102  p :     3.173112
      px      :     1.061375
      py      :     1.053635
      dz2     :     0.004377  d :     0.069219
      dxz     :     0.020375
      dyz     :     0.019819
      dx2y2   :     0.004027
      dxy     :     0.020621
  3 N s       :     3.315624  s :     3.315624
      pz      :     1.329150  p :     3.636253
      px      :     0.941569
      py      :     1.365534
      dz2     :     0.013765  d :     0.087312
      dxz     :     0.017449
      dyz     :     0.010909
      dx2y2   :     0.027272
      dxy     :     0.017918
  4 O s       :     3.483993  s :     3.483993
      pz      :     1.665459  p :     4.543470
      px      :     1.247641
      py      :     1.630371
      dz2     :     0.003283  d :     0.032548
      dxz     :     0.005920
      dyz     :     0.006450
      dx2y2   :     0.010538
      dxy     :     0.006357
  5 H s       :     0.903785  s :     0.903785
      pz      :     0.023923  p :     0.066812
      px      :     0.016562
      py      :     0.026327
  6 H s       :     0.890333  s :     0.890333
      pz      :     0.015355  p :     0.067657
      px      :     0.016745
      py      :     0.035558
  7 H s       :     0.890331  s :     0.890331
      pz      :     0.036752  p :     0.067698
      px      :     0.016755
      py      :     0.014191
  8 H s       :     0.904066  s :     0.904066
      pz      :     0.021123  p :     0.067591
      px      :     0.023594
      py      :     0.022874
  9 H s       :     0.887537  s :     0.887537
      pz      :     0.022314  p :     0.068078
      px      :     0.023872
      py      :     0.021892
 10 H s       :     0.887782  s :     0.887782
      pz      :     0.023766  p :     0.068118
      px      :     0.023898
      py      :     0.020454
 11 H s       :     0.752126  s :     0.752126
      pz      :     0.070017  p :     0.176639
      px      :     0.032340
      py      :     0.074282


                      *****************************
                      * MAYER POPULATION ANALYSIS *
                      *****************************

  NA   - Mulliken gross atomic population
  ZA   - Total nuclear charge
  QA   - Mulliken gross atomic charge
  VA   - Mayer's total valence
  BVA  - Mayer's bonded valence
  FA   - Mayer's free valence

  ATOM       NA         ZA         QA         VA         BVA        FA
  0 C      5.9255     6.0000     0.0745     3.9100     3.9100    -0.0000
  1 C      6.2784     6.0000    -0.2784     4.2760     4.2760     0.0000
  2 C      5.9061     6.0000     0.0939     3.9128     3.9128     0.0000
  3 N      7.0584     7.0000    -0.0584     2.9685     2.9685    -0.0000
  4 O      8.1906     8.0000    -0.1906     2.1566     2.1566     0.0000
  5 H      0.9886     1.0000     0.0114     0.9987     0.9987    -0.0000
  6 H      0.9585     1.0000     0.0415     1.0013     1.0013    -0.0000
  7 H      0.9585     1.0000     0.0415     1.0014     1.0014    -0.0000
  8 H      0.9888     1.0000     0.0112     0.9960     0.9960     0.0000
  9 H      0.9576     1.0000     0.0424     1.0038     1.0038    -0.0000
 10 H      0.9583     1.0000     0.0417     1.0039     1.0039     0.0000
 11 H      0.8306     1.0000     0.1694     1.0220     1.0220    -0.0000

  Mayer bond orders larger than 0.1
B(  0-C ,  1-C ) :   1.0768 B(  0-C ,  5-H ) :   0.9473 B(  0-C ,  6-H ) :   0.9534 
B(  0-C ,  7-H ) :   0.9537 B(  1-C ,  2-C ) :   1.0712 B(  1-C ,  3-N ) :   1.8800 
B(  2-C ,  8-H ) :   0.9425 B(  2-C ,  9-H ) :   0.9373 B(  2-C , 10-H ) :   0.9384 
B(  3-N ,  4-O ) :   1.0027 B(  4-O , 11-H ) :   0.9772 


 *********************************** NBO 6.0 ***********************************
             N A T U R A L   A T O M I C   O R B I T A L   A N D
          N A T U R A L   B O N D   O R B I T A L   A N A L Y S I S
 ***************************** Kiya KiyaLu (100703) ****************************
  (c) Copyright 1996-2015 Board of Regents of the University of Wisconsin System
      on behalf of the Theoretical Chemistry Institute.  All rights reserved.

          Cite this program as:

          NBO 6.0.  E. D. Glendening, J. K. Badenhoop, A. E. Reed,
          J. E. Carpenter, J. A. Bohmann, C. M. Morales, C. R. Landis,
          and F. Weinhold (Theoretical Chemistry Institute, University
          of Wisconsin, Madison, WI, 2013); http://nbo6.chem.wisc.edu/

       /NPA    / : Natural Population Analysis
       /NBO    / : Natural Bond Orbital Analysis
       /AONBO  / : Write the AO to NBO transformation to lfn77
       /FILE   / : Set to 0186

 Filename set to 0186

 Job title:  *** NBO job generated by orca_scf

 Warning: MOs are non-orthogonal; program will continue

 Warning: -1122.30766 electrons reside outside the linearly independent MO space


 NATURAL POPULATIONS:  Natural atomic orbital occupancies

  NAO Atom No lang   Type(AO)    Occupancy      Energy
 -------------------------------------------------------
   1    C  1  s      Cor( 1s)     1.99914      -9.77442
   2    C  1  s      Val( 2s)     1.09314      -0.21444
   3    C  1  s      Ryd( 3s)     0.00034       0.82358
   4    C  1  px     Val( 2p)     1.09420      -0.07004
   5    C  1  px     Ryd( 3p)     0.00085       0.46655
   6    C  1  py     Val( 2p)     1.24083      -0.06830
   7    C  1  py     Ryd( 3p)     0.00241       0.56979
   8    C  1  pz     Val( 2p)     1.24114      -0.06845
   9    C  1  pz     Ryd( 3p)     0.00215       0.56642
  10    C  1  dxy    Ryd( 3d)     0.00042       2.14063
  11    C  1  dxz    Ryd( 3d)     0.00044       2.13596
  12    C  1  dyz    Ryd( 3d)     0.00043       2.23947
  13    C  1  dx2y2  Ryd( 3d)     0.00056       2.24814
  14    C  1  dz2    Ryd( 3d)     0.00044       2.25061

  15    C  2  s      Cor( 1s)     1.99913      -9.79710
  16    C  2  s      Val( 2s)     0.83291      -0.11807
  17    C  2  s      Ryd( 3s)     0.00313       0.48343
  18    C  2  px     Val( 2p)     1.01767      -0.04699
  19    C  2  px     Ryd( 3p)     0.00578       0.76071
  20    C  2  py     Val( 2p)     0.95055      -0.05405
  21    C  2  py     Ryd( 3p)     0.00709       0.62374
  22    C  2  pz     Val( 2p)     0.95031      -0.06300
  23    C  2  pz     Ryd( 3p)     0.00624       0.61150
  24    C  2  dxy    Ryd( 3d)     0.00106       2.11600
  25    C  2  dxz    Ryd( 3d)     0.00101       2.06424
  26    C  2  dyz    Ryd( 3d)     0.00086       2.19871
  27    C  2  dx2y2  Ryd( 3d)     0.00124       2.17079
  28    C  2  dz2    Ryd( 3d)     0.00122       1.98768

  29    C  3  s      Cor( 1s)     1.99915      -9.77196
  30    C  3  s      Val( 2s)     1.09605      -0.21548
  31    C  3  s      Ryd( 3s)     0.00095       0.84892
  32    C  3  px     Val( 2p)     1.21892      -0.06953
  33    C  3  px     Ryd( 3p)     0.00217       0.56805
  34    C  3  py     Val( 2p)     1.19066      -0.07116
  35    C  3  py     Ryd( 3p)     0.00173       0.53610
  36    C  3  pz     Val( 2p)     1.20099      -0.07134
  37    C  3  pz     Ryd( 3p)     0.00156       0.53837
  38    C  3  dxy    Ryd( 3d)     0.00067       2.31776
  39    C  3  dxz    Ryd( 3d)     0.00067       2.32356
  40    C  3  dyz    Ryd( 3d)     0.00063       2.31322
  41    C  3  dx2y2  Ryd( 3d)     0.00016       2.00745
  42    C  3  dz2    Ryd( 3d)     0.00021       1.96947

  43    N  4  s      Cor( 1s)     1.99911     -13.84730
  44    N  4  s      Val( 2s)     1.43688      -0.47163
  45    N  4  s      Ryd( 3s)     0.00549       0.99509
  46    N  4  px     Val( 2p)     0.90115      -0.13538
  47    N  4  px     Ryd( 3p)     0.00559       0.97191
  48    N  4  py     Val( 2p)     1.43606      -0.18401
  49    N  4  py     Ryd( 3p)     0.00280       0.80332
  50    N  4  pz     Val( 2p)     1.39078      -0.18158
  51    N  4  pz     Ryd( 3p)     0.00231       0.80310
  52    N  4  dxy    Ryd( 3d)     0.00149       2.38143
  53    N  4  dxz    Ryd( 3d)     0.00140       2.34021
  54    N  4  dyz    Ryd( 3d)     0.00206       2.51680
  55    N  4  dx2y2  Ryd( 3d)     0.00215       2.47755
  56    N  4  dz2    Ryd( 3d)     0.00195       2.30386

  57    O  5  s      Cor( 1s)     1.99977     -18.61817
  58    O  5  s      Val( 2s)     1.71317      -0.80410
  59    O  5  s      Ryd( 3s)     0.00213       1.31094
  60    O  5  px     Val( 2p)     1.30230      -0.25801
  61    O  5  px     Ryd( 3p)     0.00131       1.00462
  62    O  5  py     Val( 2p)     1.74546      -0.25917
  63    O  5  py     Ryd( 3p)     0.00131       1.10306
  64    O  5  pz     Val( 2p)     1.77201      -0.25844
  65    O  5  pz     Ryd( 3p)     0.00131       1.06814
  66    O  5  dxy    Ryd( 3d)     0.00101       2.73829
  67    O  5  dxz    Ryd( 3d)     0.00093       2.71783
  68    O  5  dyz    Ryd( 3d)     0.00150       2.98417
  69    O  5  dx2y2  Ryd( 3d)     0.00135       2.99072
  70    O  5  dz2    Ryd( 3d)     0.00098       2.74308

  71    H  6  s      Val( 1s)     0.77224       0.06362
  72    H  6  s      Ryd( 2s)     0.00112       0.34769
  73    H  6  px     Ryd( 2p)     0.00023       1.79280
  74    H  6  py     Ryd( 2p)     0.00045       1.99567
  75    H  6  pz     Ryd( 2p)     0.00040       1.94089

  76    H  7  s      Val( 1s)     0.75603       0.07117
  77    H  7  s      Ryd( 2s)     0.00191       0.33062
  78    H  7  px     Ryd( 2p)     0.00021       1.77380
  79    H  7  py     Ryd( 2p)     0.00070       2.18178
  80    H  7  pz     Ryd( 2p)     0.00021       1.78371

  81    H  8  s      Val( 1s)     0.75610       0.07131
  82    H  8  s      Ryd( 2s)     0.00192       0.33083
  83    H  8  px     Ryd( 2p)     0.00021       1.77208
  84    H  8  py     Ryd( 2p)     0.00019       1.75578
  85    H  8  pz     Ryd( 2p)     0.00073       2.20407

  86    H  9  s      Val( 1s)     0.76985       0.06725
  87    H  9  s      Ryd( 2s)     0.00117       0.34617
  88    H  9  px     Ryd( 2p)     0.00036       1.95112
  89    H  9  py     Ryd( 2p)     0.00036       1.92713
  90    H  9  pz     Ryd( 2p)     0.00032       1.88517

  91    H 10  s      Val( 1s)     0.74792       0.07204
  92    H 10  s      Ryd( 2s)     0.00241       0.33974
  93    H 10  px     Ryd( 2p)     0.00040       1.96262
  94    H 10  py     Ryd( 2p)     0.00034       1.94149
  95    H 10  pz     Ryd( 2p)     0.00035       1.88823

  96    H 11  s      Val( 1s)     0.74811       0.07199
  97    H 11  s      Ryd( 2s)     0.00241       0.33934
  98    H 11  px     Ryd( 2p)     0.00040       1.96207
  99    H 11  py     Ryd( 2p)     0.00031       1.84589
 100    H 11  pz     Ryd( 2p)     0.00039       1.98325

 101    H 12  s      Val( 1s)     0.52341       0.07837
 102    H 12  s      Ryd( 2s)     0.00167       0.38149
 103    H 12  px     Ryd( 2p)     0.00085       1.82022
 104    H 12  py     Ryd( 2p)     0.00169       2.05764
 105    H 12  pz     Ryd( 2p)     0.00166       1.97805


 Summary of Natural Population Analysis:

                                     Natural Population
             Natural    ---------------------------------------------
  Atom No    Charge        Core      Valence    Rydberg      Total
 --------------------------------------------------------------------
    C  1   -0.67649      1.99914     4.66931    0.00803     6.67649
    C  2    0.22180      1.99913     3.75144    0.02764     5.77820
    C  3   -0.71453      1.99915     4.70662    0.00876     6.71453
    N  4   -0.18923      1.99911     5.16487    0.02524     7.18923
    O  5   -0.54454      1.99977     6.53293    0.01183     8.54454
    H  6    0.22556      0.00000     0.77224    0.00220     0.77444
    H  7    0.24094      0.00000     0.75603    0.00303     0.75906
    H  8    0.24085      0.00000     0.75610    0.00305     0.75915
    H  9    0.22794      0.00000     0.76985    0.00221     0.77206
    H 10    0.24859      0.00000     0.74792    0.00349     0.75141
    H 11    0.24839      0.00000     0.74811    0.00350     0.75161
    H 12    0.47072      0.00000     0.52341    0.00588     0.52928
 ====================================================================
 * Total *  0.00000      9.99631    29.89882    0.10487    40.00000

                                 Natural Population
 ---------------------------------------------------------
   Core                       9.99631 ( 99.9631% of   10)
   Valence                   29.89882 ( 99.6627% of   30)
   Natural Minimal Basis     39.89513 ( 99.7378% of   40)
   Natural Rydberg Basis      0.10487 (  0.2622% of   40)
 ---------------------------------------------------------

    Atom No         Natural Electron Configuration
 ----------------------------------------------------------------------------
      C  1      [core]2s( 1.09)2p( 3.58)3p( 0.01)
      C  2      [core]2s( 0.83)2p( 2.92)3p( 0.02)3d( 0.01)
      C  3      [core]2s( 1.10)2p( 3.61)3p( 0.01)
      N  4      [core]2s( 1.44)2p( 3.73)3s( 0.01)3p( 0.01)3d( 0.01)
      O  5      [core]2s( 1.71)2p( 4.82)3d( 0.01)
      H  6            1s( 0.77)
      H  7            1s( 0.76)
      H  8            1s( 0.76)
      H  9            1s( 0.77)
      H 10            1s( 0.75)
      H 11            1s( 0.75)
      H 12            1s( 0.52)


 NATURAL BOND ORBITAL ANALYSIS:

                            Occupancies       Lewis Structure    Low   High
         Max    Occ     -------------------  -----------------   occ   occ
  Cycle  Ctr   Thresh    Lewis   non-Lewis     CR  BD  nC  LP    (L)   (NL)
 ============================================================================
    1     2     1.90    39.59320   0.40680      5  12   0   3     1      1
    2     2     1.88    39.59320   0.40680      5  12   0   3     0      1
    3     3     1.90    38.81720   1.18280      5  13   0   2     1      1
    4     2     1.90    39.59320   0.40680      5  12   0   3     1      1
 ----------------------------------------------------------------------------

 Strongly delocalized structure accepted

 -------------------------------------------------------
   Core                      9.99631 ( 99.963% of  10)
   Valence Lewis            29.59689 ( 98.656% of  30)
  ==================      =============================
   Total Lewis              39.59320 ( 98.983% of  40)
  -----------------------------------------------------
   Valence non-Lewis         0.34258 (  0.856% of  40)
   Rydberg non-Lewis         0.06422 (  0.161% of  40)
  ==================      =============================
   Total non-Lewis           0.40680 (  1.017% of  40)
 -------------------------------------------------------


     (Occupancy)   Bond orbital / Coefficients / Hybrids
 ------------------ Lewis ------------------------------------------------------
   1. (1.99914) CR ( 1) C  1            s(100.00%)
                                         1.0000  0.0000  0.0000  0.0000  0.0000
                                         0.0000  0.0000  0.0000  0.0000  0.0000
                                         0.0000  0.0000  0.0000  0.0000
   2. (1.99913) CR ( 1) C  2            s(100.00%)
                                         1.0000  0.0000  0.0000  0.0000  0.0000
                                         0.0000  0.0000  0.0000  0.0000  0.0000
                                         0.0000  0.0000  0.0000  0.0000
   3. (1.99915) CR ( 1) C  3            s(100.00%)
                                         1.0000  0.0000  0.0000  0.0000  0.0000
                                         0.0000  0.0000  0.0000  0.0000  0.0000
                                         0.0000  0.0000  0.0000  0.0000
   4. (1.99911) CR ( 1) N  4            s(100.00%)
                                         1.0000  0.0000  0.0000  0.0000  0.0000
                                         0.0000  0.0000  0.0000  0.0000  0.0000
                                         0.0000  0.0000  0.0000  0.0000
   5. (1.99977) CR ( 1) O  5            s(100.00%)
                                         1.0000  0.0000  0.0000  0.0000  0.0000
                                         0.0000  0.0000  0.0000  0.0000  0.0000
                                         0.0000  0.0000  0.0000  0.0000
   6. (1.95569) LP ( 1) N  4            s( 38.83%)p 1.57( 61.09%)d 0.00(  0.08%)
                                         0.0000  0.6226 -0.0270 -0.1893 -0.0062
                                        -0.5632 -0.0260 -0.5066 -0.0234 -0.0102
                                        -0.0091 -0.0214  0.0098 -0.0030
   7. (1.99161) LP ( 1) O  5            s( 56.65%)p 0.76( 43.32%)d 0.00(  0.03%)
                                         0.0000  0.7525 -0.0157  0.3443 -0.0022
                                         0.4168 -0.0078  0.3752 -0.0070 -0.0115
                                        -0.0104 -0.0066  0.0034 -0.0012
   8. (1.88714) LP ( 2) O  5            s(  0.00%)p 1.00( 99.94%)d 0.00(  0.06%)
                                         0.0000  0.0006 -0.0001 -0.0010  0.0000
                                         0.6686 -0.0108 -0.7430  0.0122 -0.0084
                                         0.0095  0.0022  0.0107  0.0184
   9. (1.97095) BD ( 1) C  1- C  2
               ( 49.97%)   0.7069* C  1 s( 30.19%)p 2.31( 69.77%)d 0.00(  0.04%)
                                         0.0000  0.5494  0.0021  0.8351  0.0012
                                         0.0148  0.0010  0.0133  0.0009  0.0007
                                         0.0006 -0.0002  0.0169 -0.0097
               ( 50.03%)   0.7073* C  2 s( 32.54%)p 2.07( 67.43%)d 0.00(  0.03%)
                                         0.0000  0.5704 -0.0034 -0.8210  0.0138
                                        -0.0005 -0.0076 -0.0004 -0.0069  0.0034
                                         0.0030  0.0028  0.0146 -0.0087
  10. (1.98713) BD ( 1) C  1- H  6
               ( 61.26%)   0.7827* C  1 s( 23.38%)p 3.28( 76.58%)d 0.00(  0.04%)
                                         0.0000  0.4835 -0.0011 -0.3372 -0.0144
                                         0.6002 -0.0053  0.5400 -0.0046 -0.0076
                                        -0.0068  0.0152 -0.0063  0.0018
               ( 38.74%)   0.6224* H  6 s( 99.91%)p 0.00(  0.09%)
                                         0.9995 -0.0003  0.0126 -0.0203 -0.0182
  11. (1.97587) BD ( 1) C  1- H  7
               ( 61.98%)   0.7873* C  1 s( 23.20%)p 3.31( 76.77%)d 0.00(  0.03%)
                                         0.0000  0.4817 -0.0002 -0.3069 -0.0109
                                        -0.7826  0.0059  0.2469 -0.0015  0.0082
                                        -0.0024 -0.0083 -0.0116 -0.0069
               ( 38.02%)   0.6166* H  7 s( 99.90%)p 0.00(  0.10%)
                                         0.9995 -0.0014  0.0108  0.0280 -0.0083
  12. (1.97591) BD ( 1) C  1- H  8
               ( 61.98%)   0.7873* C  1 s( 23.20%)p 3.31( 76.77%)d 0.00(  0.03%)
                                         0.0000  0.4817 -0.0003 -0.3068 -0.0110
                                         0.1631 -0.0008 -0.8042  0.0059 -0.0015
                                         0.0083 -0.0056  0.0009  0.0147
               ( 38.02%)   0.6166* H  8 s( 99.90%)p 0.00(  0.10%)
                                         0.9995 -0.0015  0.0109 -0.0055  0.0289
  13. (1.98309) BD ( 1) C  2- C  3
               ( 49.43%)   0.7031* C  2 s( 35.39%)p 1.82( 64.58%)d 0.00(  0.03%)
                                         0.0000  0.5946 -0.0181  0.4127 -0.0096
                                         0.5126 -0.0037  0.4611 -0.0031  0.0095
                                         0.0085  0.0115  0.0002 -0.0015
               ( 50.57%)   0.7111* C  3 s( 29.80%)p 2.35( 70.16%)d 0.00(  0.04%)
                                         0.0000  0.5459  0.0021 -0.4212 -0.0073
                                        -0.5381  0.0011 -0.4844  0.0013  0.0112
                                         0.0101  0.0129 -0.0030  0.0002
  14. (1.98929) BD ( 1) C  2- N  4
               ( 39.94%)   0.6320* C  2 s( 31.98%)p 2.12( 67.91%)d 0.00(  0.10%)
                                         0.0000  0.5649  0.0262  0.3938  0.0216
                                        -0.5379 -0.0328 -0.4820 -0.0296 -0.0158
                                        -0.0142  0.0236 -0.0040 -0.0006
               ( 60.06%)   0.7750* N  4 s( 46.40%)p 1.15( 53.47%)d 0.00(  0.13%)
                                         0.0000  0.6807  0.0266 -0.3460  0.0086
                                         0.4778  0.0022  0.4320  0.0022 -0.0134
                                        -0.0120  0.0296 -0.0112  0.0029
  15. (1.97235) BD ( 2) C  2- N  4
               ( 43.06%)   0.6562* C  2 s(  0.00%)p 1.00( 99.86%)d 0.00(  0.14%)
                                         0.0000  0.0008  0.0003  0.0005  0.0001
                                         0.6674 -0.0124 -0.7435  0.0147  0.0116
                                        -0.0129  0.0035  0.0167  0.0288
               ( 56.94%)   0.7546* N  4 s(  0.00%)p 1.00( 99.82%)d 0.00(  0.18%)
                                         0.0000  0.0012  0.0004 -0.0004  0.0002
                                         0.6689 -0.0074 -0.7421  0.0083 -0.0007
                                         0.0007 -0.0043 -0.0209 -0.0360
  16. (1.98719) BD ( 1) C  3- H  9
               ( 61.42%)   0.7837* C  3 s( 24.17%)p 3.14( 75.79%)d 0.00(  0.04%)
                                         0.0000  0.4916  0.0024 -0.5386  0.0120
                                         0.5083  0.0053  0.4574  0.0047 -0.0125
                                        -0.0112  0.0096  0.0026 -0.0027
               ( 38.58%)   0.6211* H  9 s( 99.91%)p 0.00(  0.09%)
                                         0.9996 -0.0004  0.0169 -0.0177 -0.0161
  17. (1.97050) BD ( 1) C  3- H 10
               ( 62.36%)   0.7897* C  3 s( 23.00%)p 3.35( 76.97%)d 0.00(  0.04%)
                                         0.0000  0.4796 -0.0009  0.5158  0.0026
                                         0.5185  0.0067 -0.4844  0.0109  0.0101
                                        -0.0111 -0.0109  0.0010  0.0019
               ( 37.64%)   0.6135* H 10 s( 99.91%)p 0.00(  0.09%)
                                         0.9995 -0.0031 -0.0189 -0.0172  0.0163
  18. (1.97050) BD ( 1) C  3- H 11
               ( 62.35%)   0.7896* C  3 s( 23.01%)p 3.34( 76.96%)d 0.00(  0.04%)
                                         0.0000  0.4797 -0.0009  0.5156  0.0027
                                        -0.4273  0.0116  0.5665  0.0055 -0.0100
                                         0.0113 -0.0111  0.0000  0.0002
               ( 37.65%)   0.6136* H 11 s( 99.91%)p 0.00(  0.09%)
                                         0.9995 -0.0031 -0.0190  0.0144 -0.0190
  19. (1.98687) BD ( 1) N  4- O  5
               ( 40.53%)   0.6366* N  4 s( 14.99%)p 5.66( 84.78%)d 0.02(  0.23%)
                                         0.0000  0.3845  0.0452  0.9146 -0.0549
                                         0.0629  0.0239  0.0568  0.0214  0.0163
                                         0.0147  0.0063  0.0366 -0.0219
               ( 59.47%)   0.7712* O  5 s( 21.83%)p 3.58( 78.06%)d 0.01(  0.12%)
                                         0.0000  0.4670  0.0138 -0.8792 -0.0110
                                        -0.0649 -0.0016 -0.0568 -0.0014  0.0111
                                         0.0100  0.0075  0.0252 -0.0154
  20. (1.99280) BD ( 1) O  5- H 12
               ( 73.77%)   0.8589* O  5 s( 21.56%)p 3.63( 78.32%)d 0.01(  0.12%)
                                         0.0000  0.4637  0.0242  0.3266  0.0271
                                        -0.6109 -0.0119 -0.5498 -0.0109 -0.0048
                                        -0.0043  0.0300 -0.0154  0.0052
               ( 26.23%)   0.5122* H 12 s( 99.64%)p 0.00(  0.36%)
                                         0.9982 -0.0018 -0.0222  0.0415  0.0375
 ---------------- non-Lewis ----------------------------------------------------
  21. (0.02287) BD*( 1) C  1- C  2
               ( 50.03%)   0.7073* C  1 s( 30.19%)p 2.31( 69.77%)d 0.00(  0.04%)
                                         0.0000 -0.5494 -0.0021 -0.8351 -0.0012
                                        -0.0148 -0.0010 -0.0133 -0.0009 -0.0007
                                        -0.0006  0.0002 -0.0169  0.0097
               ( 49.97%)  -0.7069* C  2 s( 32.54%)p 2.07( 67.43%)d 0.00(  0.03%)
                                         0.0000 -0.5704  0.0034  0.8210 -0.0138
                                         0.0005  0.0076  0.0004  0.0069 -0.0034
                                        -0.0030 -0.0028 -0.0146  0.0087
  22. (0.00502) BD*( 1) C  1- H  6
               ( 38.74%)   0.6224* C  1 s( 23.38%)p 3.28( 76.58%)d 0.00(  0.04%)
                                         0.0000 -0.4835  0.0011  0.3372  0.0144
                                        -0.6002  0.0053 -0.5400  0.0046  0.0076
                                         0.0068 -0.0152  0.0063 -0.0018
               ( 61.26%)  -0.7827* H  6 s( 99.91%)p 0.00(  0.09%)
                                        -0.9995  0.0003 -0.0126  0.0203  0.0182
  23. (0.00896) BD*( 1) C  1- H  7
               ( 38.02%)   0.6166* C  1 s( 23.20%)p 3.31( 76.77%)d 0.00(  0.03%)
                                         0.0000 -0.4817  0.0002  0.3069  0.0109
                                         0.7826 -0.0059 -0.2469  0.0015 -0.0082
                                         0.0024  0.0083  0.0116  0.0069
               ( 61.98%)  -0.7873* H  7 s( 99.90%)p 0.00(  0.10%)
                                        -0.9995  0.0014 -0.0108 -0.0280  0.0083
  24. (0.00897) BD*( 1) C  1- H  8
               ( 38.02%)   0.6166* C  1 s( 23.20%)p 3.31( 76.77%)d 0.00(  0.03%)
                                         0.0000 -0.4817  0.0003  0.3068  0.0110
                                        -0.1631  0.0008  0.8042 -0.0059  0.0015
                                        -0.0083  0.0056 -0.0009 -0.0147
               ( 61.98%)  -0.7873* H  8 s( 99.90%)p 0.00(  0.10%)
                                        -0.9995  0.0015 -0.0109  0.0055 -0.0289
  25. (0.03541) BD*( 1) C  2- C  3
               ( 50.57%)   0.7111* C  2 s( 35.39%)p 1.82( 64.58%)d 0.00(  0.03%)
                                         0.0000  0.5946 -0.0181  0.4127 -0.0096
                                         0.5126 -0.0037  0.4611 -0.0031  0.0095
                                         0.0085  0.0115  0.0002 -0.0015
               ( 49.43%)  -0.7031* C  3 s( 29.80%)p 2.35( 70.16%)d 0.00(  0.04%)
                                         0.0000  0.5459  0.0021 -0.4212 -0.0073
                                        -0.5381  0.0011 -0.4844  0.0013  0.0112
                                         0.0101  0.0129 -0.0030  0.0002
  26. (0.02257) BD*( 1) C  2- N  4
               ( 60.06%)   0.7750* C  2 s( 31.98%)p 2.12( 67.91%)d 0.00(  0.10%)
                                         0.0000  0.5649  0.0262  0.3938  0.0216
                                        -0.5379 -0.0328 -0.4820 -0.0296 -0.0158
                                        -0.0142  0.0236 -0.0040 -0.0006
               ( 39.94%)  -0.6320* N  4 s( 46.40%)p 1.15( 53.47%)d 0.00(  0.13%)
                                         0.0000  0.6807  0.0266 -0.3460  0.0086
                                         0.4778  0.0022  0.4320  0.0022 -0.0134
                                        -0.0120  0.0296 -0.0112  0.0029
  27. (0.18145) BD*( 2) C  2- N  4
               ( 56.94%)   0.7546* C  2 s(  0.00%)p 1.00( 99.86%)d 0.00(  0.14%)
                                         0.0000 -0.0008 -0.0003 -0.0005 -0.0001
                                        -0.6674  0.0124  0.7435 -0.0147 -0.0116
                                         0.0129 -0.0035 -0.0167 -0.0288
               ( 43.06%)  -0.6562* N  4 s(  0.00%)p 1.00( 99.82%)d 0.00(  0.18%)
                                         0.0000 -0.0012 -0.0004  0.0004 -0.0002
                                        -0.6689  0.0074  0.7421 -0.0083  0.0007
                                        -0.0007  0.0043  0.0209  0.0360
  28. (0.00634) BD*( 1) C  3- H  9
               ( 38.58%)   0.6211* C  3 s( 24.17%)p 3.14( 75.79%)d 0.00(  0.04%)
                                         0.0000 -0.4916 -0.0024  0.5386 -0.0120
                                        -0.5083 -0.0053 -0.4574 -0.0047  0.0125
                                         0.0112 -0.0096 -0.0026  0.0027
               ( 61.42%)  -0.7837* H  9 s( 99.91%)p 0.00(  0.09%)
                                        -0.9996  0.0004 -0.0169  0.0177  0.0161
  29. (0.01101) BD*( 1) C  3- H 10
               ( 37.64%)   0.6135* C  3 s( 23.00%)p 3.35( 76.97%)d 0.00(  0.04%)
                                         0.0000 -0.4796  0.0009 -0.5158 -0.0026
                                        -0.5185 -0.0067  0.4844 -0.0109 -0.0101
                                         0.0111  0.0109 -0.0010 -0.0019
               ( 62.36%)  -0.7897* H 10 s( 99.91%)p 0.00(  0.09%)
                                        -0.9995  0.0031  0.0189  0.0172 -0.0163
  30. (0.01101) BD*( 1) C  3- H 11
               ( 37.65%)   0.6136* C  3 s( 23.01%)p 3.34( 76.96%)d 0.00(  0.04%)
                                         0.0000 -0.4797  0.0009 -0.5156 -0.0027
                                         0.4273 -0.0116 -0.5665 -0.0055  0.0100
                                        -0.0113  0.0111  0.0000 -0.0002
               ( 62.35%)  -0.7896* H 11 s( 99.91%)p 0.00(  0.09%)
                                        -0.9995  0.0031  0.0190 -0.0144  0.0190
  31. (0.02556) BD*( 1) N  4- O  5
               ( 59.47%)   0.7712* N  4 s( 14.99%)p 5.66( 84.78%)d 0.02(  0.23%)
                                         0.0000 -0.3845 -0.0452 -0.9146  0.0549
                                        -0.0629 -0.0239 -0.0568 -0.0214 -0.0163
                                        -0.0147 -0.0063 -0.0366  0.0219
               ( 40.53%)  -0.6366* O  5 s( 21.83%)p 3.58( 78.06%)d 0.01(  0.12%)
                                         0.0000 -0.4670 -0.0138  0.8792  0.0110
                                         0.0649  0.0016  0.0568  0.0014 -0.0111
                                        -0.0100 -0.0075 -0.0252  0.0154
  32. (0.00341) BD*( 1) O  5- H 12
               ( 26.23%)   0.5122* O  5 s( 21.56%)p 3.63( 78.32%)d 0.01(  0.12%)
                                         0.0000 -0.4637 -0.0242 -0.3266 -0.0271
                                         0.6109  0.0119  0.5498  0.0109  0.0048
                                         0.0043 -0.0300  0.0154 -0.0052
               ( 73.77%)  -0.8589* H 12 s( 99.64%)p 0.00(  0.36%)
                                        -0.9982  0.0018  0.0222 -0.0415 -0.0375
  33. (0.00378) RY ( 1) C  1            s(  0.09%)p99.99( 96.96%)d33.12(  2.95%)
                                         0.0000  0.0022  0.0298 -0.0002  0.1012
                                        -0.0073 -0.7225 -0.0066 -0.6613 -0.1248
                                        -0.1163 -0.0096  0.0165 -0.0087
  34. (0.00124) RY ( 2) C  1            s(  0.00%)p 1.00( 66.63%)d 0.50( 33.37%)
                                         0.0000  0.0000  0.0043  0.0000  0.0033
                                         0.0083  0.5522 -0.0089 -0.6010  0.3888
                                        -0.4265 -0.0024 -0.0139 -0.0221
  35. (0.00051) RY ( 3) C  1            s( 54.29%)p 0.81( 43.96%)d 0.03(  1.75%)
                                         0.0000  0.0106  0.7368 -0.0124  0.6584
                                         0.0023  0.0541  0.0021  0.0556  0.0594
                                         0.0582  0.0327  0.0828 -0.0513
  36. (0.00014) RY ( 4) C  1            s( 34.18%)p 0.97( 33.08%)d 0.96( 32.74%)
                                         0.0000 -0.0095  0.5845  0.0154 -0.5749
                                        -0.0073 -0.0006 -0.0065 -0.0024 -0.2143
                                        -0.1902  0.3040 -0.3538  0.1667
  37. (0.00004) RY ( 5) C  1            s(  9.45%)p 2.16( 20.41%)d 7.42( 70.14%)
  38. (0.00003) RY ( 6) C  1            s(  0.01%)p 1.00( 32.56%)d 2.07( 67.43%)
  39. (0.00002) RY ( 7) C  1            s(  1.90%)p 2.25(  4.28%)d49.39( 93.82%)
  40. (0.00000) RY ( 8) C  1            s(  0.11%)p12.45(  1.42%)d99.99( 98.46%)
  41. (0.00000) RY ( 9) C  1            s(  0.00%)p 1.00(  0.82%)d99.99( 99.18%)
  42. (0.01265) RY ( 1) C  2            s( 16.64%)p 4.61( 76.66%)d 0.40(  6.70%)
                                         0.0000 -0.0327  0.4066 -0.0049  0.3920
                                         0.0341 -0.5808  0.0301 -0.5230 -0.0906
                                        -0.0813 -0.0979  0.1838 -0.0938
  43. (0.00478) RY ( 2) C  2            s(  0.39%)p99.99( 95.05%)d11.62(  4.56%)
                                         0.0000  0.0064  0.0623  0.0141  0.8266
                                         0.0043  0.3864  0.0043  0.3429 -0.0621
                                        -0.0554 -0.1114  0.1452 -0.0720
  44. (0.00286) RY ( 3) C  2            s(  0.00%)p 1.00( 83.97%)d 0.19( 16.02%)
                                         0.0000  0.0000  0.0017  0.0000 -0.0042
                                         0.0220  0.6119 -0.0242 -0.6814 -0.1101
                                         0.1187 -0.0375 -0.1828 -0.3150
  45. (0.00095) RY ( 4) C  2            s( 22.20%)p 0.30(  6.63%)d 3.21( 71.17%)
                                         0.0000  0.0028  0.4712 -0.0130 -0.1613
                                         0.0200  0.1466  0.0186  0.1335 -0.5799
                                        -0.5149  0.2541 -0.1935  0.0915
  46. (0.00062) RY ( 5) C  2            s(  0.00%)p 0.00(  0.00%)d 1.00(100.00%)
                                         0.0000  0.0001  0.0023  0.0001  0.0000
                                         0.0016 -0.0032 -0.0021  0.0047 -0.6070
                                         0.6909  0.0384  0.1970  0.3375
  47. (0.00042) RY ( 6) C  2            s(  3.87%)p 4.32( 16.72%)d20.52( 79.41%)
                                         0.0000  0.0153  0.1961  0.0145 -0.3588
                                        -0.0086  0.1465 -0.0072  0.1288 -0.0847
                                        -0.0826 -0.4761  0.6706 -0.3222
  48. (0.00024) RY ( 7) C  2            s(  0.08%)p99.99( 16.14%)d99.99( 83.78%)
                                         0.0000  0.0000  0.0285  0.0000 -0.0003
                                        -0.0178  0.2731  0.0199 -0.2934  0.2627
                                        -0.2444  0.0989  0.4113  0.7281
  49. (0.00021) RY ( 8) C  2            s( 53.28%)p 0.09(  4.91%)d 0.78( 41.81%)
                                         0.0000  0.0029  0.7299 -0.0017 -0.0831
                                         0.0028  0.1402  0.0014  0.1501  0.4405
                                         0.4080  0.2277 -0.0670 -0.0357
  50. (0.00001) RY ( 9) C  2            s(  3.63%)p 0.04(  0.14%)d26.53( 96.23%)
  51. (0.00295) RY ( 1) C  3            s(  9.20%)p 9.41( 86.63%)d 0.45(  4.16%)
                                         0.0000  0.0094  0.3032  0.0096  0.5343
                                        -0.0035 -0.5675 -0.0031 -0.5086 -0.0727
                                        -0.0667  0.0852 -0.1409  0.0690
  52. (0.00188) RY ( 2) C  3            s( 30.94%)p 2.21( 68.43%)d 0.02(  0.63%)
                                         0.0000  0.0079  0.5562  0.0035 -0.7586
                                         0.0097 -0.2655  0.0093 -0.1953  0.0567
                                         0.0368 -0.0137  0.0253 -0.0297
  53. (0.00124) RY ( 3) C  3            s(  0.04%)p99.99( 73.75%)d99.99( 26.21%)
                                         0.0000  0.0004  0.0203  0.0001 -0.0272
                                         0.0071  0.5632 -0.0074 -0.6477 -0.1999
                                         0.2269  0.0433  0.2060  0.3554
  54. (0.00019) RY ( 4) C  3            s( 47.94%)p 0.64( 30.48%)d 0.45( 21.58%)
                                         0.0000 -0.0101  0.6923  0.0012  0.2779
                                        -0.0117  0.3550 -0.0107  0.3182 -0.2896
                                        -0.2586  0.0614  0.2115 -0.1287
  55. (0.00007) RY ( 5) C  3            s(  2.77%)p 1.81(  5.03%)d33.23( 92.20%)
  56. (0.00002) RY ( 6) C  3            s(  7.30%)p 1.11(  8.13%)d11.59( 84.58%)
  57. (0.00002) RY ( 7) C  3            s(  0.03%)p99.99( 12.00%)d99.99( 87.96%)
  58. (0.00001) RY ( 8) C  3            s(  1.79%)p 0.80(  1.43%)d54.12( 96.78%)
  59. (0.00000) RY ( 9) C  3            s(  0.00%)p 1.00( 14.24%)d 6.02( 85.76%)
  60. (0.00495) RY ( 1) N  4            s( 21.59%)p 3.20( 69.12%)d 0.43(  9.29%)
                                         0.0000  0.0015  0.4647 -0.0128  0.5885
                                        -0.0271  0.4344 -0.0239  0.3932 -0.1244
                                        -0.1103 -0.0548  0.2186 -0.1204
  61. (0.00189) RY ( 2) N  4            s( 45.61%)p 0.69( 31.39%)d 0.50( 23.00%)
                                         0.0000 -0.0281  0.6748 -0.0345 -0.5567
                                        -0.0209 -0.0358 -0.0185 -0.0279 -0.3419
                                        -0.2993  0.0860 -0.1153  0.0535
  62. (0.00127) RY ( 3) N  4            s(  0.00%)p 1.00(  9.07%)d10.02( 90.92%)
                                         0.0000 -0.0001  0.0031 -0.0005 -0.0062
                                         0.0108  0.2053 -0.0123 -0.2198  0.6045
                                        -0.6783  0.0304  0.1442  0.2489
  63. (0.00052) RY ( 4) N  4            s(  7.64%)p10.66( 81.49%)d 1.42( 10.86%)
                                         0.0000  0.0022  0.2765  0.0591  0.5713
                                        -0.0005 -0.5199 -0.0002 -0.4635 -0.0861
                                        -0.0875  0.1307 -0.2456  0.1272
  64. (0.00026) RY ( 5) N  4            s( 18.86%)p 0.50(  9.38%)d 3.81( 71.77%)
                                         0.0000 -0.0112  0.4341 -0.0536 -0.1188
                                         0.0010 -0.2062  0.0009 -0.1852  0.4854
                                         0.4346 -0.1267  0.4635 -0.2494
  65. (0.00005) RY ( 6) N  4            s(  0.01%)p99.99( 75.39%)d99.99( 24.60%)
  66. (0.00004) RY ( 7) N  4            s(  6.04%)p 1.27(  7.65%)d14.29( 86.31%)
  67. (0.00001) RY ( 8) N  4            s(  0.03%)p71.59(  1.82%)d99.99( 98.16%)
  68. (0.00000) RY ( 9) N  4            s(  0.00%)p 1.00( 15.53%)d 5.44( 84.47%)
  69. (0.00154) RY ( 1) O  5            s( 38.74%)p 0.96( 37.06%)d 0.62( 24.20%)
                                         0.0000  0.0014  0.6224  0.0031 -0.0381
                                         0.0088  0.4604  0.0077  0.3963 -0.3630
                                        -0.3183  0.0579  0.0611 -0.0433
  70. (0.00113) RY ( 2) O  5            s(  0.01%)p99.99( 72.40%)d99.99( 27.58%)
                                         0.0000  0.0000  0.0109  0.0001 -0.0009
                                        -0.0054 -0.5644  0.0062  0.6367  0.3439
                                        -0.3943  0.0052  0.0234  0.0394
  71. (0.00024) RY ( 3) O  5            s(  0.09%)p99.99( 36.38%)d99.99( 63.53%)
                                         0.0000  0.0159  0.0256  0.0224 -0.0320
                                        -0.0012  0.4466 -0.0009  0.4035  0.5936
                                         0.5309 -0.0110  0.0280 -0.0149
  72. (0.00014) RY ( 4) O  5            s(  8.10%)p 9.11( 73.80%)d 2.23( 18.10%)
                                         0.0000 -0.0027  0.2846  0.0302 -0.8154
                                        -0.0109 -0.1991 -0.0098 -0.1799  0.1057
                                         0.0968 -0.0870  0.3432 -0.1872
  73. (0.00002) RY ( 5) O  5            s(  9.87%)p 0.88(  8.70%)d 8.25( 81.43%)
  74. (0.00001) RY ( 6) O  5            s( 30.68%)p 1.06( 32.59%)d 1.20( 36.73%)
  75. (0.00001) RY ( 7) O  5            s(  0.00%)p 1.00(  3.96%)d24.25( 96.04%)
  76. (0.00000) RY ( 8) O  5            s( 12.46%)p 0.95( 11.79%)d 6.08( 75.75%)
  77. (0.00000) RY ( 9) O  5            s(  0.00%)p 1.00( 23.68%)d 3.22( 76.32%)
  78. (0.00116) RY ( 1) H  6            s( 96.62%)p 0.04(  3.38%)
                                         0.0058  0.9829 -0.0743  0.1281  0.1091
  79. (0.00017) RY ( 2) H  6            s(  0.00%)p 1.00(100.00%)
                                         0.0003  0.0023  0.0130 -0.6544  0.7560
  80. (0.00014) RY ( 3) H  6            s(  0.09%)p99.99( 99.91%)
                                        -0.0042  0.0296 -0.8390 -0.4178 -0.3472
  81. (0.00003) RY ( 4) H  6            s(  3.38%)p28.56( 96.62%)
  82. (0.00197) RY ( 1) H  7            s( 97.26%)p 0.03(  2.74%)
                                         0.0052  0.9862 -0.1459 -0.0782  0.0072
  83. (0.00017) RY ( 2) H  7            s(  0.00%)p 1.00(100.00%)
                                         0.0007  0.0050  0.1852 -0.3666 -0.9118
  84. (0.00014) RY ( 3) H  7            s(  0.42%)p99.99( 99.58%)
                                         0.0105  0.0640  0.7455 -0.5488  0.3725
  85. (0.00002) RY ( 4) H  7            s(  2.42%)p40.36( 97.58%)
  86. (0.00197) RY ( 1) H  8            s( 97.27%)p 0.03(  2.73%)
                                         0.0053  0.9862 -0.1467  0.0003 -0.0762
  87. (0.00017) RY ( 2) H  8            s(  0.00%)p 1.00(100.00%)
                                         0.0005  0.0045  0.1623 -0.9525 -0.2575
  88. (0.00014) RY ( 3) H  8            s(  0.44%)p99.99( 99.56%)
                                         0.0107  0.0654  0.7489  0.2882 -0.5931
  89. (0.00002) RY ( 4) H  8            s(  2.39%)p40.83( 97.61%)
  90. (0.00122) RY ( 1) H  9            s( 96.39%)p 0.04(  3.61%)
                                         0.0060  0.9817 -0.0930  0.1236  0.1105
  91. (0.00016) RY ( 2) H  9            s(  0.00%)p 1.00(100.00%)
                                        -0.0002  0.0003  0.0090  0.6692 -0.7430
  92. (0.00014) RY ( 3) H  9            s(  0.01%)p 1.00( 99.99%)
                                        -0.0042  0.0081  0.8916  0.3310  0.3089
  93. (0.00002) RY ( 4) H  9            s(  3.69%)p26.09( 96.31%)
  94. (0.00246) RY ( 1) H 10            s( 98.31%)p 0.02(  1.69%)
                                         0.0065  0.9915  0.1212  0.0406 -0.0237
  95. (0.00018) RY ( 2) H 10            s(  0.25%)p99.99( 99.75%)
                                         0.0007  0.0495 -0.6567  0.7525  0.0048
  96. (0.00015) RY ( 3) H 10            s(  0.03%)p99.99( 99.97%)
                                         0.0075  0.0147 -0.2381 -0.2027 -0.9497
  97. (0.00003) RY ( 4) H 10            s(  1.51%)p65.26( 98.49%)
  98. (0.00245) RY ( 1) H 11            s( 98.30%)p 0.02(  1.70%)
                                         0.0065  0.9914  0.1218 -0.0197  0.0424
  99. (0.00018) RY ( 2) H 11            s(  0.25%)p99.99( 99.75%)
                                         0.0005  0.0502 -0.6536  0.0972  0.7489
 100. (0.00015) RY ( 3) H 11            s(  0.03%)p99.99( 99.97%)
                                         0.0074  0.0155 -0.2503 -0.9634 -0.0944
 101. (0.00003) RY ( 4) H 11            s(  1.51%)p65.07( 98.49%)
 102. (0.00172) RY ( 1) H 12            s( 96.69%)p 0.03(  3.31%)
                                         0.0104  0.9833  0.1481 -0.0399 -0.0977
 103. (0.00150) RY ( 2) H 12            s(  0.20%)p99.99( 99.80%)
                                         0.0006  0.0449  0.0076 -0.6734  0.7379
 104. (0.00074) RY ( 3) H 12            s(  0.83%)p99.99( 99.17%)
                                         0.0053  0.0911 -0.8908 -0.3306 -0.2980
 105. (0.00004) RY ( 4) H 12            s(  2.63%)p36.96( 97.37%)


 NHO DIRECTIONALITY AND BOND BENDING (deviation from line of nuclear centers at
                                      the position of maximum hybrid amplitude)

         [Thresholds for printing:  angular deviation  >  1.0 degree]
                                    p- or d-character  > 25.0%
                                    orbital occupancy  >  0.10e

                        Line of Centers        Hybrid 1             Hybrid 2
                        ---------------  -------------------  ------------------
           NBO            Theta   Phi    Theta   Phi    Dev   Theta   Phi    Dev
 ===============================================================================
   6. LP ( 1) N  4          --     --    130.1  249.6   --      --     --    --
   7. LP ( 1) O  5          --     --     54.4   52.8   --      --     --    --
   8. LP ( 2) O  5          --     --    138.6   90.6   --      --     --    --
  13. BD ( 1) C  2- C  3   54.6   52.3    55.0   51.1   1.1     --     --    --
  15. BD ( 2) C  2- N  4  126.5  304.6   139.4   88.9  88.5    40.9  270.0  89.0
  19. BD ( 1) N  4- O  5   86.5    3.9     --     --    --     94.4  185.0   1.4
  20. BD ( 1) O  5- H 12  129.6  293.3   128.7  297.1   3.1     --     --    --


 SECOND ORDER PERTURBATION THEORY ANALYSIS OF FOCK MATRIX IN NBO BASIS

     Threshold for printing:   0.50 kcal/mol
                                                          E(2) E(NL)-E(L) F(L,NL)
      Donor (L) NBO              Acceptor (NL) NBO      kcal/mol   a.u.    a.u.
 ===============================================================================

 within unit  1
    1. CR ( 1) C  1            25. BD*( 1) C  2- C  3      0.81   10.16   0.081
    1. CR ( 1) C  1            43. RY ( 2) C  2            0.85   10.69   0.085
    1. CR ( 1) C  1            47. RY ( 6) C  2            0.50   11.74   0.068
    1. CR ( 1) C  1            78. RY ( 1) H  6            0.71   10.22   0.076
    1. CR ( 1) C  1            82. RY ( 1) H  7            0.73   10.17   0.077
    1. CR ( 1) C  1            86. RY ( 1) H  8            0.73   10.17   0.077
    2. CR ( 1) C  2            31. BD*( 1) N  4- O  5      0.53    9.99   0.065
    2. CR ( 1) C  2            35. RY ( 3) C  1            1.18   10.47   0.099
    2. CR ( 1) C  2            52. RY ( 2) C  3            1.11   10.39   0.096
    2. CR ( 1) C  2            63. RY ( 4) N  4            1.12   10.83   0.098
    3. CR ( 1) C  3            21. BD*( 1) C  1- C  2      0.77   10.15   0.079
    3. CR ( 1) C  3            26. BD*( 1) C  2- N  4      0.61   10.35   0.071
    3. CR ( 1) C  3            43. RY ( 2) C  2            1.01   10.68   0.093
    3. CR ( 1) C  3            90. RY ( 1) H  9            0.72   10.22   0.076
    3. CR ( 1) C  3            94. RY ( 1) H 10            0.77   10.16   0.079
    3. CR ( 1) C  3            98. RY ( 1) H 11            0.77   10.16   0.079
    4. CR ( 1) N  4            21. BD*( 1) C  1- C  2      0.71   14.23   0.090
    4. CR ( 1) N  4            25. BD*( 1) C  2- C  3      1.00   14.23   0.107
    4. CR ( 1) N  4            31. BD*( 1) N  4- O  5      1.36   14.04   0.123
    4. CR ( 1) N  4            42. RY ( 1) C  2            5.78   14.47   0.258
    5. CR ( 1) O  5            26. BD*( 1) C  2- N  4      0.72   19.19   0.105
    5. CR ( 1) O  5            61. RY ( 2) N  4            0.60   19.99   0.098
    5. CR ( 1) O  5            63. RY ( 4) N  4            0.56   19.65   0.094
    6. LP ( 1) N  4            21. BD*( 1) C  1- C  2      0.82    0.72   0.022
    6. LP ( 1) N  4            25. BD*( 1) C  2- C  3      8.94    0.72   0.072
    6. LP ( 1) N  4            42. RY ( 1) C  2            7.64    0.96   0.076
    7. LP ( 1) O  5            21. BD*( 1) C  1- C  2      0.80    0.95   0.025
    7. LP ( 1) O  5            28. BD*( 1) C  3- H  9      0.92    0.98   0.027
    7. LP ( 1) O  5            61. RY ( 2) N  4            1.58    1.95   0.050
    7. LP ( 1) O  5           104. RY ( 3) H 12            0.55    2.32   0.032
    8. LP ( 2) O  5            27. BD*( 2) C  2- N  4     16.68    0.27   0.059
    8. LP ( 2) O  5            62. RY ( 3) N  4            1.02    2.32   0.043
    8. LP ( 2) O  5            65. RY ( 6) N  4            0.78    1.33   0.029
    8. LP ( 2) O  5           103. RY ( 2) H 12            2.00    1.86   0.054
    9. BD ( 1) C  1- C  2      22. BD*( 1) C  1- H  6      0.58    0.97   0.021
    9. BD ( 1) C  1- C  2      23. BD*( 1) C  1- H  7      0.75    0.97   0.024
    9. BD ( 1) C  1- C  2      24. BD*( 1) C  1- H  8      0.74    0.97   0.024
    9. BD ( 1) C  1- C  2      25. BD*( 1) C  2- C  3      1.04    0.95   0.028
    9. BD ( 1) C  1- C  2      26. BD*( 1) C  2- N  4      1.58    1.14   0.038
    9. BD ( 1) C  1- C  2      29. BD*( 1) C  3- H 10      0.67    0.97   0.023
    9. BD ( 1) C  1- C  2      30. BD*( 1) C  3- H 11      0.67    0.97   0.023
    9. BD ( 1) C  1- C  2      31. BD*( 1) N  4- O  5      5.51    0.76   0.058
    9. BD ( 1) C  1- C  2      60. RY ( 1) N  4            1.66    1.52   0.045
   10. BD ( 1) C  1- H  6      26. BD*( 1) C  2- N  4      3.83    1.01   0.056
   10. BD ( 1) C  1- H  6      43. RY ( 2) C  2            0.66    1.35   0.027
   11. BD ( 1) C  1- H  7      25. BD*( 1) C  2- C  3      2.14    0.82   0.037
   11. BD ( 1) C  1- H  7      27. BD*( 2) C  2- N  4      3.91    0.44   0.037
   11. BD ( 1) C  1- H  7      44. RY ( 3) C  2            0.52    1.21   0.022
   12. BD ( 1) C  1- H  8      25. BD*( 1) C  2- C  3      2.13    0.82   0.037
   12. BD ( 1) C  1- H  8      27. BD*( 2) C  2- N  4      3.91    0.44   0.037
   12. BD ( 1) C  1- H  8      44. RY ( 3) C  2            0.51    1.21   0.022
   13. BD ( 1) C  2- C  3      21. BD*( 1) C  1- C  2      1.48    0.95   0.034
   13. BD ( 1) C  2- C  3      23. BD*( 1) C  1- H  7      0.61    0.98   0.022
   13. BD ( 1) C  2- C  3      24. BD*( 1) C  1- H  8      0.61    0.98   0.022
   13. BD ( 1) C  2- C  3      26. BD*( 1) C  2- N  4      1.43    1.15   0.036
   13. BD ( 1) C  2- C  3      28. BD*( 1) C  3- H  9      0.77    0.98   0.025
   13. BD ( 1) C  2- C  3      29. BD*( 1) C  3- H 10      0.71    0.98   0.024
   13. BD ( 1) C  2- C  3      30. BD*( 1) C  3- H 11      0.71    0.98   0.023
   13. BD ( 1) C  2- C  3      31. BD*( 1) N  4- O  5      0.65    0.77   0.020
   13. BD ( 1) C  2- C  3      33. RY ( 1) C  1            0.74    1.20   0.027
   13. BD ( 1) C  2- C  3      60. RY ( 1) N  4            1.03    1.53   0.035
   14. BD ( 1) C  2- N  4      21. BD*( 1) C  1- C  2      1.87    1.20   0.042
   14. BD ( 1) C  2- N  4      22. BD*( 1) C  1- H  6      0.95    1.23   0.031
   14. BD ( 1) C  2- N  4      25. BD*( 1) C  2- C  3      1.95    1.21   0.043
   14. BD ( 1) C  2- N  4      28. BD*( 1) C  3- H  9      0.68    1.23   0.026
   14. BD ( 1) C  2- N  4      32. BD*( 1) O  5- H 12      0.92    1.20   0.030
   14. BD ( 1) C  2- N  4      33. RY ( 1) C  1            0.61    1.45   0.027
   15. BD ( 2) C  2- N  4      23. BD*( 1) C  1- H  7      1.64    0.69   0.030
   15. BD ( 2) C  2- N  4      24. BD*( 1) C  1- H  8      1.64    0.69   0.030
   15. BD ( 2) C  2- N  4      27. BD*( 2) C  2- N  4      0.80    0.29   0.014
   15. BD ( 2) C  2- N  4      29. BD*( 1) C  3- H 10      1.67    0.69   0.030
   15. BD ( 2) C  2- N  4      30. BD*( 1) C  3- H 11      1.66    0.69   0.030
   15. BD ( 2) C  2- N  4      34. RY ( 2) C  1            0.70    1.35   0.027
   15. BD ( 2) C  2- N  4      53. RY ( 3) C  3            0.64    1.23   0.025
   15. BD ( 2) C  2- N  4      70. RY ( 2) O  5            1.08    1.62   0.037
   16. BD ( 1) C  3- H  9      26. BD*( 1) C  2- N  4      5.07    1.02   0.064
   16. BD ( 1) C  3- H  9      43. RY ( 2) C  2            0.88    1.35   0.031
   17. BD ( 1) C  3- H 10      21. BD*( 1) C  1- C  2      2.29    0.81   0.039
   17. BD ( 1) C  3- H 10      27. BD*( 2) C  2- N  4      4.47    0.44   0.040
   17. BD ( 1) C  3- H 10      44. RY ( 3) C  2            0.62    1.21   0.024
   18. BD ( 1) C  3- H 11      21. BD*( 1) C  1- C  2      2.29    0.81   0.039
   18. BD ( 1) C  3- H 11      27. BD*( 2) C  2- N  4      4.48    0.44   0.040
   18. BD ( 1) C  3- H 11      44. RY ( 3) C  2            0.62    1.21   0.024
   19. BD ( 1) N  4- O  5      21. BD*( 1) C  1- C  2      4.99    1.12   0.067
   19. BD ( 1) N  4- O  5      43. RY ( 2) C  2            2.12    1.65   0.053
   20. BD ( 1) O  5- H 12      26. BD*( 1) C  2- N  4      3.29    1.23   0.057


 NATURAL BOND ORBITALS (Summary):

                                                     Principal Delocalizations
           NBO                 Occupancy    Energy   (geminal,vicinal,remote)
 ===============================================================================
 Molecular unit  1  (C3H7NO)
 ------ Lewis --------------------------------------
    1. CR ( 1) C  1             1.99914    -9.77442  43(v),25(v),86(v),82(v)
                                                     78(v),47(v)
    2. CR ( 1) C  2             1.99913    -9.79710  35(v),63(v),52(v),31(v)
    3. CR ( 1) C  3             1.99915    -9.77196  43(v),21(v),94(v),98(v)
                                                     90(v),26(v)
    4. CR ( 1) N  4             1.99911   -13.84730  42(v),31(g),25(v),21(v)
    5. CR ( 1) O  5             1.99977   -18.61817  26(v),61(v),63(v)
    6. LP ( 1) N  4             1.95569    -0.33678  25(v),42(v),21(v)
    7. LP ( 1) O  5             1.99161    -0.57293  61(v),28(r),21(r),104(v)
    8. LP ( 2) O  5             1.88714    -0.25614  27(v),103(v),62(v),65(v)
    9. BD ( 1) C  1- C  2       1.97095    -0.56015  31(v),60(v),26(g),25(g)
                                                     23(g),24(g),29(v),30(v)
                                                     22(g)
   10. BD ( 1) C  1- H  6       1.98713    -0.43917  26(v),43(v)
   11. BD ( 1) C  1- H  7       1.97587    -0.43452  27(v),25(v),44(v)
   12. BD ( 1) C  1- H  8       1.97591    -0.43458  27(v),25(v),44(v)
   13. BD ( 1) C  2- C  3       1.98309    -0.57089  21(g),26(g),60(v),28(g)
                                                     33(v),29(g),30(g),31(v)
                                                     23(v),24(v)
   14. BD ( 1) C  2- N  4       1.98929    -0.82033  25(g),21(g),22(v),32(v)
                                                     28(v),33(v)
[...]
  0 C                -0.8      -0.0      -0.0      -0.2      -0.0      -0.1
  1 C                 1.4       0.1       0.1       3.7       0.3      -7.1
  2 C                48.7      51.7      51.7      -1.0       0.2      -0.2
  3 N                -0.1      -0.2      -0.2      35.0       0.4     109.8
  4 O                 0.0       0.1       0.1      62.7      57.2      -2.4
  5 H                 0.2       0.0       0.0      -0.0      -0.0       0.0
  8 H                50.8      -0.2      -0.2      -0.0       0.0       0.0
  9 H                -0.1      48.5      -0.0      -0.0      -0.0       0.0
 10 H                -0.1      -0.0      48.6      -0.0      -0.0       0.0
 11 H                 0.0       0.0       0.0      -0.3      42.0      -0.0

                     18        19        20        21        22        23   
                   0.00000   0.00000   0.00000   0.00000   0.00000   0.00000
                   1.99161   1.88714   0.02287   0.00502   0.00896   0.00897
                  --------  --------  --------  --------  --------  --------
  0 C                 0.0      -0.0      47.6      44.4      43.7      43.7
  1 C                -0.2      -0.0      51.1       0.3      -0.3      -0.3
  2 C                 0.1      -0.0       1.5       0.1      -0.3      -0.3
  3 N                -3.0      -1.0       0.7      -0.5       0.0       0.0
  4 O               104.0     101.1       0.2      -0.0      -0.0      -0.0
  5 H                -0.0       0.0      -0.3      55.4       0.0       0.0
  6 H                 0.0       0.0      -0.2       0.0      56.9      -0.0
  7 H                 0.0       0.0      -0.2       0.0      -0.0      56.9
  8 H                -0.0       0.0       0.1       0.2       0.0       0.0
  9 H                -0.0       0.0      -0.2      -0.0       0.0       0.0
 10 H                -0.0       0.0      -0.2      -0.0       0.0       0.0
 11 H                -0.9      -0.0       0.0      -0.0      -0.0      -0.0

                     24        25        26        27        28        29   
                   0.00000   0.00000   0.00000   0.00000   0.00000   0.00000
                   0.03541   0.02257   0.18145   0.00634   0.01101   0.01101
                  --------  --------  --------  --------  --------  --------
  0 C                 1.6       0.8      -0.2       0.1      -0.3      -0.3
  1 C                49.5      52.2      57.1       0.4      -0.4      -0.4
  2 C                48.3       1.1      -0.2      44.3      43.6      43.6
  3 N                 1.8      46.6      43.6      -0.5       0.0       0.0
  4 O                 0.0      -0.2      -0.2      -0.1       0.0       0.0
  5 H                 0.1      -0.2       0.0       0.2       0.0       0.0
  6 H                -0.2       0.0      -0.0      -0.0       0.0       0.0
  7 H                -0.2       0.0      -0.0      -0.0       0.0       0.0
  8 H                -0.4      -0.2       0.0      55.5       0.0       0.0
  9 H                -0.3       0.0      -0.0       0.0      57.1      -0.0
 10 H                -0.3       0.0      -0.0       0.0      -0.0      57.1
 11 H                 0.0      -0.1       0.0      -0.0       0.0       0.0

                     30        31        32        33        34        35   
                   0.00000   0.00000   0.00000   0.00000   0.00000   0.00000
                   0.02556   0.00341   0.00378   0.00124   0.00051   0.00014
                  --------  --------  --------  --------  --------  --------
  0 C                -0.4       0.0     141.8     123.3     230.8     146.9
  1 C                 2.2      -0.1     -14.0      -3.9    -105.9      -2.7
  2 C                -0.3      -0.1       0.7      -0.0      -6.7      -0.3
  3 N                58.1       0.0      -0.7      -0.1      -2.4       0.2
  4 O                40.2      28.8      -0.1      -0.0      -1.2      -0.1
  5 H                 0.0      -0.0     -17.5      -2.0      -5.3     -17.2
  6 H                -0.0      -0.0      -5.1      -8.6      -4.4     -13.4
  7 H                -0.0      -0.0      -5.3      -8.6      -4.2     -13.4
  8 H                -0.0      -0.0       0.1       0.0      -1.1       0.0
  9 H                 0.0      -0.0      -0.0      -0.0       0.2      -0.0
 10 H                 0.0      -0.0      -0.0      -0.0       0.2      -0.0
 11 H                 0.2      71.3      -0.0      -0.0      -0.0      -0.0

                     36        37        38        39        40        41   
                   0.00000   0.00000   0.00000   0.00000   0.00000   0.00000
                   0.00004   0.00003   0.00002   0.00000   0.00000   0.01265
                  --------  --------  --------  --------  --------  --------
  0 C               123.3     117.5     110.4     109.5     113.0      -9.9
  1 C                -2.7      -4.5      -3.3      -2.9       0.1     183.9
  2 C                 1.3       0.1       0.0       0.1      -0.0      -8.2
  3 N                -0.3      -0.1      -0.0      -0.3      -0.0     -63.1
  4 O                -0.0       0.0      -0.0      -0.0       0.0      -2.3
  5 H                -9.1       0.6      -4.1      -1.0      -1.7       0.4
  6 H                -5.7      -7.2      -1.5      -2.5      -5.8      -0.2
  7 H                -6.5      -6.3      -1.6      -2.8      -5.5      -0.2
  8 H                -0.3      -0.0      -0.0      -0.1      -0.0       0.3
  9 H                -0.0      -0.0      -0.0       0.0       0.0      -0.2
 10 H                -0.0      -0.0      -0.0       0.0      -0.0      -0.2
 11 H                -0.0      -0.0      -0.0      -0.0      -0.0      -0.2

                     42        43        44        45        46        47   
                   0.00000   0.00000   0.00000   0.00000   0.00000   0.00000
                   0.00478   0.00286   0.00095   0.00062   0.00042   0.00024
                  --------  --------  --------  --------  --------  --------
  0 C               -43.9      -5.2     -27.5      -1.1      -9.3      -2.2
  1 C               224.7     117.7     152.1     102.4     119.7     106.4
  2 C               -60.1      -4.8     -27.7      -0.8      -6.7      -3.0
  3 N               -20.0      -7.2       2.5      -0.1      -4.7      -1.7
  4 O                -1.3       0.1      -0.2      -0.0       0.8      -0.1
  5 H                -0.7      -0.0       0.7      -0.1       0.3      -0.1
  6 H                 0.4      -0.1      -0.1      -0.1      -0.2       0.1
  7 H                 0.4      -0.1      -0.1      -0.1      -0.2       0.1
  8 H                -0.4       0.0       0.6      -0.1       0.4      -0.1
  9 H                 0.5      -0.2      -0.1      -0.0      -0.0       0.3
 10 H                 0.5      -0.2      -0.1      -0.1       0.0       0.2

                     48        49        50        51        52        53   
                   0.00000   0.00000   0.00000   0.00000   0.00000   0.00000
                   0.00021   0.00001   0.00295   0.00188   0.00124   0.00019
                  --------  --------  --------  --------  --------  --------
  0 C               -36.7      -5.6      -2.4      -2.6      -0.0      -0.1
  1 C               183.0     112.6     -35.0     -92.8      -4.7      -6.9
  2 C               -36.3      -4.3     164.3     212.8     124.7     159.3
  3 N                -9.7      -2.6       1.5      -3.9      -0.2      -0.2
  4 O                 0.3       0.0      -4.9      -0.7      -0.0      -0.3
  5 H                 0.9       0.1       0.1      -1.3       0.0      -0.0
  6 H                -0.6      -0.1       0.0       0.2      -0.0      -0.0
  7 H                -0.6      -0.1       0.0       0.2      -0.0      -0.0
  8 H                 0.8       0.1      -9.4     -11.3      -1.6     -18.7
  9 H                -0.6      -0.0      -7.0      -0.1      -9.2     -16.5
 10 H                -0.5      -0.0      -7.1      -0.4      -8.9     -16.5
 11 H                 0.0      -0.0      -0.1      -0.0       0.0      -0.0

                     54        55        56        57        58        59   
                   0.00000   0.00000   0.00000   0.00000   0.00000   0.00000
                   0.00007   0.00002   0.00002   0.00001   0.00000   0.00495
                  --------  --------  --------  --------  --------  --------
  0 C                 0.2      -0.1       0.0      -0.1       0.0       0.0
  1 C                -4.7      -1.7      -2.6      -1.3      -1.3     -18.6
  2 C               117.4     113.1     109.4     111.1     119.3      -0.8
  3 N                -0.0      -0.1      -0.1      -0.0      -0.0     121.8
  4 O                 0.3      -0.0      -0.0      -0.0      -0.0      -2.1
  5 H                -0.1      -0.0      -0.0      -0.0      -0.0      -0.0
  8 H                -7.2      -5.7      -0.7      -2.6      -0.8      -0.0
  9 H                -2.9      -3.0      -2.7      -3.5      -8.6      -0.1
 10 H                -2.9      -2.5      -3.2      -3.5      -8.6      -0.1

                     60        61        62        63        64        65   
                   0.00000   0.00000   0.00000   0.00000   0.00000   0.00000
                   0.00189   0.00127   0.00052   0.00026   0.00005   0.00004
                  --------  --------  --------  --------  --------  --------
  0 C                -1.4       0.0      -0.5      -0.9      -0.0      -0.2
  1 C               -29.4      -1.4     -29.1     -15.5      -5.1      -2.1
  2 C                 1.8       0.0      -2.4      -0.7      -0.2       0.1
  3 N               162.2     102.8     132.3     118.4     106.2     107.7
  4 O               -30.4      -1.5       0.4      -0.8      -0.7      -5.0
  6 H                -0.1      -0.0       0.0      -0.1      -0.1      -0.0
  7 H                -0.1      -0.0       0.0      -0.1      -0.1      -0.0
  8 H                -0.1       0.0       0.0      -0.1      -0.0      -0.0
  9 H                -0.2       0.0      -0.1      -0.1      -0.0      -0.0
 10 H                -0.2       0.0      -0.1      -0.1      -0.0      -0.0
 11 H                -2.0      -0.0      -0.7       0.0      -0.0      -0.4

                     66        67        68        69        70        71   
                   0.00000   0.00000   0.00000   0.00000   0.00000   0.00000
                   0.00001   0.00000   0.00154   0.00113   0.00024   0.00014
                  --------  --------  --------  --------  --------  --------
  0 C                -0.1      -0.1      -0.6      -0.0      -0.4      -0.3
  1 C                -0.9      -3.2       0.5      -0.0      -1.1       0.0
  2 C                -0.2      -0.1      -4.7       0.0      -0.9      -0.4
  3 N               101.3     104.3      -6.2      -0.7      -2.5     -15.5
  4 O                 0.0      -0.7     112.8     101.8     107.5     118.4
  9 H                -0.0      -0.0      -0.1      -0.1      -0.1      -0.1
 10 H                -0.0      -0.0      -0.1      -0.1      -0.1      -0.1
 11 H                -0.0      -0.0      -1.6      -0.9      -2.5      -2.1

                     72        73        74        75        76        77   
                   0.00000   0.00000   0.00000   0.00000   0.00000   0.00000
                   0.00002   0.00001   0.00001   0.00000   0.00000   0.00116
                  --------  --------  --------  --------  --------  --------
  0 C                -0.2      -0.1       0.0      -0.0       0.0     -38.0
  1 C                -0.2      -0.9      -0.0      -0.4       0.0       1.6
  2 C                 0.1      -0.1      -0.0       0.1      -0.0      -1.3
  3 N               -10.4      -1.3      -0.4      -0.2      -1.5       0.1
  4 O               111.1     109.1     102.5     108.3     101.7       0.0
  5 H                -0.0       0.0      -0.0       0.0       0.0     141.9
  6 H                -0.0      -0.0      -0.0      -0.0      -0.0      -0.4
  7 H                -0.0      -0.0      -0.0      -0.0      -0.0      -0.4
  8 H                -0.0      -0.0      -0.0      -0.0      -0.0      -3.4
 11 H                -0.2      -6.8      -2.1      -7.8      -0.1      -0.0

                     78        79        80        81        82        83   
                   0.00000   0.00000   0.00000   0.00000   0.00000   0.00000
                   0.00017   0.00014   0.00003   0.00197   0.00017   0.00014
                  --------  --------  --------  --------  --------  --------
  0 C                -3.0      -2.7      -8.3     -34.3      -3.0      -3.7
  1 C                -0.1      -0.4      -0.1      -0.7      -0.1       0.0
  2 C                -0.0      -0.1      -0.0       0.2      -0.0      -0.1
  3 N                -0.0      -0.3      -0.1      -0.1      -0.1      -0.1
  5 H               103.8     104.1     109.1      -0.4      -0.4      -0.3
  6 H                -0.3      -0.3      -0.2     135.5     104.1     104.8
  7 H                -0.3      -0.3      -0.2      -0.2      -0.4      -0.6
  8 H                -0.0      -0.0      -0.3      -0.0      -0.0      -0.0

                     84        85        86        87        88        89   
                   0.00000   0.00000   0.00000   0.00000   0.00000   0.00000
                   0.00002   0.00197   0.00017   0.00014   0.00002   0.00122
                  --------  --------  --------  --------  --------  --------
  0 C                -8.1     -34.3      -3.0      -3.7      -8.1      -1.2
  1 C                -0.1      -0.7      -0.2       0.0      -0.1       1.5
  2 C                -0.0       0.2      -0.0      -0.1      -0.0     -38.5
  3 N                -0.1      -0.1      -0.1      -0.1      -0.1       0.2
  5 H                -0.1      -0.4      -0.4      -0.3      -0.1      -3.4
  6 H               108.5      -0.2      -0.4      -0.6      -0.1      -0.0
  7 H                -0.1     135.5     104.1     104.8     108.5      -0.0
  8 H                -0.0      -0.0      -0.0      -0.0      -0.0     142.4
  9 H                -0.0      -0.0      -0.0      -0.0      -0.0      -0.4
 10 H                -0.0      -0.0      -0.0      -0.0      -0.0      -0.4

                     90        91        92        93        94        95   
                   0.00000   0.00000   0.00000   0.00000   0.00000   0.00000
                   0.00016   0.00014   0.00002   0.00246   0.00018   0.00015
                  --------  --------  --------  --------  --------  --------
  0 C                -0.0      -0.0      -0.0       0.2      -0.0      -0.1
  1 C                -0.1      -0.2      -0.0      -0.4      -0.2      -0.1
  2 C                -2.9      -2.8      -8.3     -34.5      -2.9      -3.2
  3 N                -0.0      -0.3      -0.0      -0.0      -0.1      -0.2
  4 O                -0.0      -0.0      -0.0      -0.3      -0.1      -0.0
  5 H                -0.0      -0.1      -0.3      -0.0      -0.0      -0.0
  8 H               103.7     104.1     109.1      -0.5      -0.2      -0.3
  9 H                -0.3      -0.3      -0.1     135.7     104.1     104.3
 10 H                -0.3      -0.3      -0.1      -0.2      -0.5      -0.5

                     96        97        98        99       100       101   
                   0.00000   0.00000   0.00000   0.00000   0.00000   0.00000
                   0.00003   0.00245   0.00018   0.00015   0.00003   0.00172
                  --------  --------  --------  --------  --------  --------
  0 C                -0.0       0.2      -0.0      -0.1      -0.0      -0.0
  1 C                -0.1      -0.3      -0.2      -0.1      -0.1      -0.0
  2 C                -7.9     -34.5      -2.9      -3.2      -7.9      -0.0
  3 N                -0.1      -0.0      -0.1      -0.2      -0.1      -3.1
  4 O                -0.0      -0.3      -0.1      -0.0      -0.0      -4.1
  8 H                -0.1      -0.5      -0.2      -0.3      -0.1       0.0
  9 H               108.3      -0.2      -0.5      -0.5      -0.1      -0.0
 10 H                -0.1     135.7     104.2     104.3     108.3      -0.0
 11 H                -0.0      -0.0      -0.0      -0.0      -0.0     107.3

                    102       103       104   
                   0.00000   0.00000   0.00000
                   0.00150   0.00074   0.00004
                  --------  --------  --------
  3 N                -0.1      -0.3      -0.2
  4 O                -3.1      -2.7      -2.0
 11 H               103.2     103.1     102.2

Storing NBOs: 0186.nbo
                                    *** NBOs were stored ***

                                *** returned from GENNBO program ***

-------
TIMINGS
-------

Total SCF time: 0 days 0 hours 0 min 3 sec 

Total time                  ....       3.365 sec
Sum of individual times     ....       3.701 sec  (110.0%)

Fock matrix formation       ....       2.201 sec  ( 65.4%)
  Coulomb formation         ....       1.259 sec  ( 57.2% of F)
  Split-RI-J                ....       1.254 sec  ( 57.0% of F)
  XC integration            ....       0.939 sec  ( 42.7% of F)
    Basis function eval.    ....       0.335 sec  ( 35.7% of XC)
    Density eval.           ....       0.167 sec  ( 17.8% of XC)
    XC-Functional eval.     ....       0.074 sec  (  7.8% of XC)
    XC-Potential eval.      ....       0.339 sec  ( 36.1% of XC)
Diagonalization             ....       0.015 sec  (  0.4%)
Density matrix formation    ....       0.001 sec  (  0.0%)
Population analysis         ....       0.769 sec  ( 22.9%)
Initial guess               ....       0.255 sec  (  7.6%)
Orbital Transformation      ....       0.000 sec  (  0.0%)
Orbital Orthonormalization  ....       0.000 sec  (  0.0%)
DIIS solution               ....       0.003 sec  (  0.1%)
SOSCF solution              ....       0.006 sec  (  0.2%)
Grid generation             ....       0.450 sec  ( 13.4%)
           ************************************************************
           *              Shut down parallel processing               *
           ************************************************************

-------------------------   --------------------
FINAL SINGLE POINT ENERGY      -247.963165704590
-------------------------   --------------------


                            ***************************************
                            *     ORCA property calculations      *
                            ***************************************

                                    ---------------------
                                    Active property flags
                                    ---------------------
   (+) Dipole Moment


------------------------------------------------------------------------------
                       ORCA ELECTRIC PROPERTIES CALCULATION
------------------------------------------------------------------------------

Dipole Moment Calculation                       ... on
Quadrupole Moment Calculation                   ... off
Polarizability Calculation                      ... off
GBWName                                         ... 0186.gbw
Electron density file                           ... 0186.scfp.tmp

-------------
DIPOLE MOMENT
-------------
                                X             Y             Z
Electronic contribution:      3.15683      -2.77484      -2.49751
Nuclear contribution   :     -3.18379       2.88065       2.59183
                        -----------------------------------------
Total Dipole Moment    :     -0.02696       0.10581       0.09432
                        -----------------------------------------
Magnitude (a.u.)       :      0.14429
Magnitude (Debye)      :      0.36675


Timings for individual modules:

Sum of individual times         ...        4.432 sec (=   0.074 min)
GTO integral calculation        ...        0.470 sec (=   0.008 min)  10.6 %
SCF iterations                  ...        3.963 sec (=   0.066 min)  89.4 %
                             ****ORCA TERMINATED NORMALLY****
TOTAL RUN TIME: 0 days 0 hours 0 minutes 4 seconds 835 msec
