
                                 *****************
                                 * O   R   C   A *
                                 *****************

           --- An Ab Initio, DFT and Semiempirical electronic structure package ---

                  #######################################################
                  #                        -***-                        #
                  #  Department of molecular theory and spectroscopy    #
                  #              Directorship: Frank Neese              #
                  # Max Planck Institute for Chemical Energy Conversion #
                  #                  D-45470 Muelheim/Ruhr              #
                  #                       Germany                       #
                  #                                                     #
                  #                  All rights reserved                #
                  #                        -***-                        #
                  #######################################################


                         Program Version 3.0.3 - RELEASE   -


 With contributions from (in alphabetic order):
   Ute Becker             : Parallelization
   Dmytro Bykov           : SCF Hessian
   Dmitry Ganyushin       : Spin-Orbit,Spin-Spin,Magnetic field MRCI
   Andreas Hansen         : Spin unrestricted coupled pair/coupled cluster methods
   Dimitrios Liakos       : Extrapolation schemes; parallel MDCI
   Robert Izsak           : Overlap fitted RIJCOSX, COSX-SCS-MP3
   Christian Kollmar      : KDIIS, OOCD, Brueckner-CCSD(T), CCSD density
   Simone Kossmann        : Meta GGA functionals, TD-DFT gradient, OOMP2, MP2 Hessian
   Taras Petrenko         : DFT Hessian,TD-DFT gradient, ASA and ECA modules, normal mode analysis, Resonance Raman, ABS, FL, XAS/XES, NRVS
   Christoph Reimann      : Effective Core Potentials
   Michael Roemelt        : Restricted open shell CIS
   Christoph Riplinger    : Improved optimizer, TS searches, QM/MM, DLPNO-CCSD
   Barbara Sandhoefer     : DKH picture change effects
   Igor Schapiro          : Molecular dynamics
   Kantharuban Sivalingam : CASSCF convergence, NEVPT2
   Boris Wezisla          : Elementary symmetry handling
   Frank Wennmohs         : Technical directorship


 We gratefully acknowledge several colleagues who have allowed us to
 interface, adapt or use parts of their codes:
   Stefan Grimme, W. Hujo, H. Kruse, T. Risthaus : VdW corrections, initial TS optimization,
                                                   DFT functionals, gCP
   Ed Valeev                                     : LibInt (2-el integral package), F12 methods
   Garnet Chan, S. Sharma, R. Olivares           : DMRG
   Ulf Ekstrom                                   : XCFun DFT Library
   Mihaly Kallay                                 : mrcc  (arbitrary order and MRCC methods)
   Andreas Klamt, Michael Diedenhofen            : otool_cosmo (COSMO solvation model)
   Frank Weinhold                                : gennbo (NPA and NBO analysis)
   Christopher J. Cramer and Donald G. Truhlar   : smd solvation model


 Your calculation uses the libint2 library for the computation of 2-el integrals
 For citations please refer to: http://libint.valeyev.net

 This ORCA versions uses:
   CBLAS   interface :  Fast vector & matrix operations
   LAPACKE interface :  Fast linear algebra routines
   SCALAPACK package :  Parallel linear algebra routines


Your calculation utilizes the basis: Ahlrichs-VDZ
Cite in your paper:
H - Kr: A. Schaefer, H. Horn and R. Ahlrichs, J. Chem. Phys. 97, 2571 (1992).

Your calculation utilizes the basis: Ahlrichs SVPalls1+f
Cite in your paper:
Rb - Xe: A. Schaefer, C. Huber and R. Ahlrichs, J. Chem. Phys. 100, 5829 (1994).

================================================================================
                                        WARNINGS
                       Please study these warnings very carefully!
================================================================================
Now building the actual basis set


INFO   : the flag for use of LIBINT has been found!

================================================================================
                                       INPUT FILE
================================================================================
NAME = 0415.inp
|  1> ! RI PBE def2-SVP def2-SVP/J NBO PAL2
|  2> % maxcore 2000
|  3> % output
|  4>     # printlevel mini
|  5>     print[ P_Basis ] 0
|  6>     print[ P_SCFInfo ] 1
|  7>     print[ P_SCFIterInfo ] 1
|  8>     print[ P_OrbEn ] 0
|  9>     print[ P_Cartesian ] 0
| 10> end
| 11> *xyz 0 1
| 12>  C        1.0207220000    -0.2227940000     0.1767190000 
| 13>  C        2.5081520000     0.0763420000     0.0140090000 
| 14>  C        3.0214780000     0.9070330000     1.1815840000 
| 15>  C        3.2621700000    -1.2155050000    -0.2249290000 
| 16>  C        4.6691950000    -1.4335810000     0.1541750000 
| 17>  N        3.5949190000    -2.1351980000     0.8591500000 
| 18>  H        0.4400630000     0.6988680000     0.2635520000 
| 19>  H        0.8406230000    -0.8190810000     1.0760780000 
| 20>  H        0.6335170000    -0.7865050000    -0.6755320000 
| 21>  H        2.6332810000     0.6750550000    -0.8977260000 
| 22>  H        2.9414830000     0.3707440000     2.1328700000 
| 23>  H        2.4241050000     1.8156680000     1.2835450000 
| 24>  H        4.0610660000     1.2117190000     1.0477520000 
| 25>  H        2.9122990000    -1.7424560000    -1.1108080000 
| 26>  H        5.1937800000    -0.6401740000     0.6755000000 
| 27>  H        5.3023790000    -2.0651550000    -0.4599410000 
| 28>  H        3.4309870000    -1.6873780000     1.7552020000 
| 29> *
| 30> 
| 31>                          ****END OF INPUT****
================================================================================

                       ****************************
                       * Single Point Calculation *
                       ****************************

--------------------------------
INTERNAL COORDINATES (ANGSTROEM)
--------------------------------
 C      0   0   0   0.000000     0.000     0.000
 C      1   0   0   1.525911     0.000     0.000
 C      2   1   0   1.522098   110.728     0.000
 C      2   1   3   1.514762   109.564   127.549
 C      4   2   1   1.473430   124.124   208.339
 N      4   2   1   1.460063   122.244   281.520
 H      1   2   3   1.092779   111.167    57.404
 H      1   2   3   1.094002   110.792   297.465
 H      1   2   3   1.092717   111.308   177.832
 H      2   1   3   1.097896   107.852   242.616
 H      3   2   1   1.094966   111.993    63.096
 H      3   2   1   1.092185   109.949   304.724
 H      3   2   1   1.091553   112.302   185.121
 H      4   2   1   1.088517   112.410    58.966
 H      5   4   2   1.084649   118.506     2.737
 H      5   4   2   1.084871   119.859   213.739
 H      6   4   2   1.015050   109.922   347.963

---------------------------
INTERNAL COORDINATES (A.U.)
---------------------------
 C      0   0   0   0.000000     0.000     0.000
 C      1   0   0   2.883554     0.000     0.000
 C      2   1   0   2.876348   110.728     0.000
 C      2   1   3   2.862485   109.564   127.549
 C      4   2   1   2.784379   124.124   208.339
 N      4   2   1   2.759119   122.244   281.520
 H      1   2   3   2.065053   111.167    57.404
 H      1   2   3   2.067364   110.792   297.465
 H      1   2   3   2.064935   111.308   177.832
 H      2   1   3   2.074722   107.852   242.616
 H      3   2   1   2.069186   111.993    63.096
 H      3   2   1   2.063931   109.949   304.724
 H      3   2   1   2.062736   112.302   185.121
 H      4   2   1   2.056999   112.410    58.966
 H      5   4   2   2.049690   118.506     2.737
 H      5   4   2   2.050110   119.859   213.739
 H      6   4   2   1.918166   109.922   347.963



           ************************************************************
           *        Program running with 2 parallel MPI-processes     *
           *              working on a common directory               *
           ************************************************************
------------------------------------------------------------------------------
                           ORCA GTO INTEGRAL CALCULATION
                           -- RI-GTO INTEGRALS CHOSEN --
------------------------------------------------------------------------------

                         BASIS SET STATISTICS AND STARTUP INFO

Gaussian basis set:
 # of primitive gaussian shells          ...  127
 # of primitive gaussian functions       ...  221
 # of contracted shells                  ...   69
 # of contracted basis functions         ...  139
 Highest angular momentum                ...    2
 Maximum contraction depth               ...    5
Auxiliary gaussian basis set:
 # of primitive gaussian shells          ...  232
 # of primitive gaussian functions       ...  596
 # of contracted shells                  ...  145
 # of contracted aux-basis functions     ...  415
 Highest angular momentum                ...    4
 Maximum contraction depth               ...    7
Ratio of auxiliary to basis functions    ...  2.99
Integral package used                  ... LIBINT
 One Electron integrals                  ... done
 Ordering auxiliary basis shells         ... done
 Integral threshhold             Thresh  ...  1.000e-10
 Primitive cut-off               TCut    ...  1.000e-11
 Pre-screening matrix                    ... done
 Shell pair data                         ... 
 Ordering of the shell pairs             ... done (   0.000 sec) 2380 of 2415 pairs
 Determination of significant pairs      ... done (   0.000 sec)
 Creation of shell pair data             ... done (   0.000 sec)
 Storage of shell pair data              ... done (   0.000 sec)
 Shell pair data done in (   0.001 sec)
 Computing two index integrals           ... done
 Cholesky decomposition of the V-matrix  ... done


Timings:
 Total evaluation time                   ...   0.155 sec (  0.003 min)
 One electron matrix time                ...   0.018 sec (  0.000 min) = 11.7%
 Schwartz matrix evaluation time         ...   0.072 sec (  0.001 min) = 46.2%
 Two index repulsion integral time       ...   0.005 sec (  0.000 min) =  3.4%
 Cholesky decomposition of V             ...   0.003 sec (  0.000 min) =  1.9%
 Three index repulsion integral time     ...   0.000 sec (  0.000 min) =  0.0%

           ************************************************************
           *              Shut down parallel processing               *
           ************************************************************


           ************************************************************
           *        Program running with 2 parallel MPI-processes     *
           *              working on a common directory               *
           ************************************************************
-------------------------------------------------------------------------------
                                 ORCA SCF
-------------------------------------------------------------------------------

------------
SCF SETTINGS
------------
Hamiltonian:
 Density Functional     Method          .... DFT(GTOs)
 Exchange Functional    Exchange        .... PBE
   PBE kappa parameter  XKappa          ....  0.804000
 Correlation Functional Correlation     .... PBE
 LDA part of GGA corr.  LDAOpt          .... PW91-LDA
 Gradients option       PostSCFGGA      .... off
   NL short-range parameter             ....  6.400000
 RI-approximation to the Coulomb term is turned on
   Number of auxiliary basis functions  .... 415


General Settings:
 Integral files         IntName         .... 0415
 Hartree-Fock type      HFTyp           .... RHF
 Total Charge           Charge          ....    0
 Multiplicity           Mult            ....    1
 Number of Electrons    NEL             ....   48
 Basis Dimension        Dim             ....  139
 Nuclear Repulsion      ENuc            ....    251.6057080347 Eh

Convergence Acceleration:
 DIIS                   CNVDIIS         .... on
   Start iteration      DIISMaxIt       ....    12
   Startup error        DIISStart       ....  0.200000
   # of expansion vecs  DIISMaxEq       ....     5
   Bias factor          DIISBfac        ....   1.050
   Max. coefficient     DIISMaxC        ....  10.000
 Newton-Raphson         CNVNR           .... off
 SOSCF                  CNVSOSCF        .... on
   Start iteration      SOSCFMaxIt      ....   150
   Startup grad/error   SOSCFStart      ....  0.003300
 Level Shifting         CNVShift        .... on
   Level shift para.    LevelShift      ....    0.2500
   Turn off err/grad.   ShiftErr        ....    0.0010
 Zerner damping         CNVZerner       .... off
 Static damping         CNVDamp         .... on
   Fraction old density DampFac         ....    0.7000
   Max. Damping (<1)    DampMax         ....    0.9800
   Min. Damping (>=0)   DampMin         ....    0.0000
   Turn off err/grad.   DampErr         ....    0.1000
 Fernandez-Rico         CNVRico         .... off

SCF Procedure:
 Maximum # iterations   MaxIter         ....   125
 SCF integral mode      SCFMode         .... Direct
   Integral package                     .... LIBINT
 Reset frequeny         DirectResetFreq ....    20
 Integral Threshold     Thresh          ....  1.000e-10 Eh
 Primitive CutOff       TCut            ....  1.000e-11 Eh

Convergence Tolerance:
 Convergence Check Mode ConvCheckMode   .... Total+1el-Energy
 Energy Change          TolE            ....  1.000e-06 Eh
 1-El. energy change                    ....  1.000e-03 Eh
 Orbital Gradient       TolG            ....  5.000e-05
 Orbital Rotation angle TolX            ....  5.000e-05
 DIIS Error             TolErr          ....  1.000e-06


Diagonalization of the overlap matrix:
Smallest eigenvalue                        ... 1.135e-03
Time for diagonalization                   ...    0.010 sec
Threshold for overlap eigenvalues          ... 1.000e-08
Number of eigenvalues below threshold      ... 0
Time for construction of square roots      ...    0.003 sec
Total time needed                          ...    0.013 sec

-------------------
DFT GRID GENERATION
-------------------

General Integration Accuracy     IntAcc      ...  4.340
Radial Grid Type                 RadialGrid  ... Gauss-Chebyshev
Angular Grid (max. acc.)         AngularGrid ... Lebedev-110
Angular grid pruning method      GridPruning ... 3 (G Style)
Weight generation scheme         WeightScheme... Becke
Basis function cutoff            BFCut       ...    1.0000e-10
Integration weight cutoff        WCut        ...    1.0000e-14
Grids for H and He will be reduced by one unit

# of grid points (after initial pruning)     ...  18716 (   0.0 sec)
# of grid points (after weights+screening)   ...  17203 (   0.1 sec)
nearest neighbour list constructed           ...    0.0 sec
Grid point re-assignment to atoms done       ...    0.0 sec
Grid point division into batches done        ...    0.0 sec
Reduced shell lists constructed in    0.1 sec

Total number of grid points                  ...    17203
Total number of batches                      ...      277
Average number of points per batch           ...       62
Average number of grid points per atom       ...     1012
Average number of shells per batch           ...    55.66 (80.66%)
Average number of basis functions per batch  ...   110.43 (79.45%)
Average number of large shells per batch     ...    45.09 (81.02%)
Average number of large basis fcns per batch ...    86.65 (78.47%)
Maximum spatial batch extension              ...  17.83, 19.49, 25.91 au
Average spatial batch extension              ...   1.38,  1.47,  1.44 au

Time for grid setup =    0.143 sec

------------------------------
INITIAL GUESS: MODEL POTENTIAL
------------------------------
Loading Hartree-Fock densities                     ... done
Calculating cut-offs                               ... done
Setting up the integral package                    ... done
Initializing the effective Hamiltonian             ... done
Starting the Coulomb interaction                   ... done (   0.0 sec)
Reading the grid                                   ... done
Mapping shells                                     ... done
Starting the XC term evaluation                    ... done (   0.1 sec)
  promolecular density results
     # of electrons  =     47.983741498
     EX              =    -35.373322531
     EC              =     -1.569430035
     EX+EC           =    -36.942752567
Transforming the Hamiltonian                       ... done (   0.0 sec)
Diagonalizing the Hamiltonian                      ... done (   0.0 sec)
Back transforming the eigenvectors                 ... done (   0.0 sec)
Now organizing SCF variables                       ... done
                      ------------------
                      INITIAL GUESS DONE (   0.4 sec)
                      ------------------
--------------
SCF ITERATIONS
--------------
ITER       Energy         Delta-E        Max-DP      RMS-DP      [F,P]     Damp
               ***  Starting incremental Fock matrix formation  ***
  0   -251.1585375552   0.000000000000 0.07577714  0.00267062  0.1730071 0.7000
  1   -251.2463409768  -0.087803421574 0.04154159  0.00193665  0.0750861 0.7000
                               ***Turning on DIIS***
  2   -251.2766238801  -0.030282903294 0.04858752  0.00302659  0.0210689 0.0000
  3   -251.3202885177  -0.043664637617 0.03118468  0.00132445  0.0474834 0.0000
  4   -251.3348766413  -0.014588123594 0.00743153  0.00040978  0.0082150 0.0000
  5   -251.3355990455  -0.000722404193 0.00347046  0.00017525  0.0046381 0.0000
                      *** Initiating the SOSCF procedure ***
                           *** Shutting down DIIS ***
                      *** Re-Reading the Fockian *** 
                      *** Removing any level shift *** 
ITER      Energy       Delta-E        Grad      Rot      Max-DP    RMS-DP
  6   -251.33567519  -0.0000761465  0.000220  0.000220  0.001720  0.000090
               *** Restarting incremental Fock matrix formation ***
  7   -251.33568059  -0.0000053974  0.000094  0.000222  0.000757  0.000031
  8   -251.33567928   0.0000013106  0.000174  0.000171  0.000488  0.000019
  9   -251.33568137  -0.0000020889  0.000019  0.000044  0.000076  0.000005
 10   -251.33568134   0.0000000268  0.000025  0.000024  0.000062  0.000003
                 **** Energy Check signals convergence ****
              ***Rediagonalizing the Fockian in SOSCF/NRSCF***

               *****************************************************
               *                     SUCCESS                       *
               *           SCF CONVERGED AFTER  11 CYCLES          *
               *****************************************************

Setting up the final grid:

General Integration Accuracy     IntAcc      ...  4.670
Radial Grid Type                 RadialGrid  ... Gauss-Chebyshev
Angular Grid (max. acc.)         AngularGrid ... Lebedev-302
Angular grid pruning method      GridPruning ... 3 (G Style)
Weight generation scheme         WeightScheme... Becke
Basis function cutoff            BFCut       ...    1.0000e-10
Integration weight cutoff        WCut        ...    1.0000e-14
Grids for H and He will be reduced by one unit

# of grid points (after initial pruning)     ...  74606 (   0.0 sec)
# of grid points (after weights+screening)   ...  67438 (   0.1 sec)
nearest neighbour list constructed           ...    0.0 sec
Grid point re-assignment to atoms done       ...    0.0 sec
Grid point division into batches done        ...    0.2 sec
Reduced shell lists constructed in    0.4 sec

Total number of grid points                  ...    67438
Total number of batches                      ...     1062
Average number of points per batch           ...       63
Average number of grid points per atom       ...     3967
Average number of shells per batch           ...    51.95 (75.29%)
Average number of basis functions per batch  ...   102.19 (73.52%)
Average number of large shells per batch     ...    41.18 (79.27%)
Average number of large basis fcns per batch ...    78.43 (76.75%)
Maximum spatial batch extension              ...  16.75, 17.02, 17.61 au
Average spatial batch extension              ...   1.01,  1.04,  1.01 au

Final grid set up in    0.6 sec
Final integration                            ... done (   0.4 sec)
Change in XC energy                          ...    -0.000070282
Integrated number of electrons               ...    47.999928792
Previous integrated no of electrons          ...    47.996623909

----------------
TOTAL SCF ENERGY
----------------

Total Energy       :         -251.33575166 Eh           -6839.19350 eV

Components:
Nuclear Repulsion  :          251.60570803 Eh            6846.53939 eV
Electronic Energy  :         -502.94145970 Eh          -13685.73289 eV

One Electron Energy:         -836.14722877 Eh          -22752.72282 eV
Two Electron Energy:          333.20576908 Eh            9066.98993 eV

Virial components:
Potential Energy   :         -500.03287079 Eh          -13606.58616 eV
Kinetic Energy     :          248.69711913 Eh            6767.39266 eV
Virial Ratio       :            2.01060982


DFT components:
N(Alpha)           :       23.999964396118 electrons
N(Beta)            :       23.999964396118 electrons
N(Total)           :       47.999928792236 electrons
E(X)               :      -36.222701439764 Eh       
E(C)               :       -1.582222299730 Eh       
E(XC)              :      -37.804923739494 Eh       

---------------
SCF CONVERGENCE
---------------

  Last Energy change         ...   -4.0756e-08  Tolerance :   1.0000e-06
  Last MAX-Density change    ...    2.4176e-05  Tolerance :   1.0000e-05
  Last RMS-Density change    ...    9.7424e-07  Tolerance :   1.0000e-06
  Last Orbital Gradient      ...    4.5324e-06  Tolerance :   5.0000e-05
  Last Orbital Rotation      ...    9.3046e-06  Tolerance :   5.0000e-05

             **** THE GBW FILE WAS UPDATED (0415.gbw) ****
             **** DENSITY FILE WAS UPDATED (0415.scfp.tmp) ****
             **** ENERGY FILE WAS UPDATED (0415.en.tmp) ****

                    ********************************
                    * MULLIKEN POPULATION ANALYSIS *
                    ********************************

-----------------------
MULLIKEN ATOMIC CHARGES
-----------------------
   0 C :    0.021776
   1 C :   -0.069878
   2 C :   -0.004906
   3 C :   -0.070514
   4 C :    0.036439
   5 N :   -0.202394
   6 H :    0.016499
   7 H :    0.015642
   8 H :    0.018734
   9 H :    0.013161
  10 H :    0.007904
  11 H :    0.019926
  12 H :    0.024914
  13 H :    0.014494
  14 H :    0.024525
  15 H :    0.031116
  16 H :    0.102562
Sum of atomic charges:   -0.0000000

--------------------------------
MULLIKEN REDUCED ORBITAL CHARGES
--------------------------------
  0 C s       :     2.991217  s :     2.991217
      pz      :     1.008808  p :     2.961492
      px      :     0.958598
      py      :     0.994086
      dz2     :     0.004424  d :     0.025515
      dxz     :     0.004377
      dyz     :     0.005863
      dx2y2   :     0.004060
      dxy     :     0.006792
  1 C s       :     3.056149  s :     3.056149
      pz      :     0.995677  p :     2.971286
      px      :     0.984853
      py      :     0.990757
      dz2     :     0.007952  d :     0.042443
      dxz     :     0.006334
      dyz     :     0.009541
      dx2y2   :     0.009522
      dxy     :     0.009095
  2 C s       :     2.991042  s :     2.991042
      pz      :     0.984616  p :     2.988378
      px      :     1.001756
      py      :     1.002007
      dz2     :     0.007801  d :     0.025486
      dxz     :     0.002155
      dyz     :     0.005769
      dx2y2   :     0.004510
      dxy     :     0.005251
  3 C s       :     3.139521  s :     3.139521
      pz      :     0.959998  p :     2.872769
      px      :     0.963363
      py      :     0.949408
      dz2     :     0.011941  d :     0.058225
      dxz     :     0.009895
      dyz     :     0.014639
      dx2y2   :     0.012067
      dxy     :     0.009682
  4 C s       :     3.035660  s :     3.035660
      pz      :     1.017201  p :     2.879702
      px      :     0.914555
      py      :     0.947947
      dz2     :     0.005656  d :     0.048198
      dxz     :     0.012775
      dyz     :     0.006553
      dx2y2   :     0.010226
      dxy     :     0.012989
  5 N s       :     3.576125  s :     3.576125
      pz      :     0.989187  p :     3.597827
      px      :     1.136945
      py      :     1.471695
      dz2     :     0.004146  d :     0.028442
      dxz     :     0.003374
      dyz     :     0.009379
      dx2y2   :     0.004823
      dxy     :     0.006719
  6 H s       :     0.959928  s :     0.959928
      pz      :     0.005706  p :     0.023573
      px      :     0.006881
      py      :     0.010987
  7 H s       :     0.960576  s :     0.960576
      pz      :     0.010936  p :     0.023782
      px      :     0.004715
      py      :     0.008131
  8 H s       :     0.957548  s :     0.957548
      pz      :     0.010355  p :     0.023717
      px      :     0.005617
      py      :     0.007745
  9 H s       :     0.965181  s :     0.965181
      pz      :     0.010165  p :     0.021658
      px      :     0.004459
      py      :     0.007034
 10 H s       :     0.967918  s :     0.967918
      pz      :     0.011133  p :     0.024178
      px      :     0.005738
      py      :     0.007307
 11 H s       :     0.956181  s :     0.956181
      pz      :     0.005110  p :     0.023893
      px      :     0.007855
      py      :     0.010928
 12 H s       :     0.951099  s :     0.951099
      pz      :     0.004999  p :     0.023987
      px      :     0.012851
      py      :     0.006136
 13 H s       :     0.964331  s :     0.964331
      pz      :     0.010113  p :     0.021174
      px      :     0.005218
      py      :     0.005844
 14 H s       :     0.952355  s :     0.952355
      pz      :     0.006680  p :     0.023120
      px      :     0.006012
      py      :     0.010427
 15 H s       :     0.946685  s :     0.946685
      pz      :     0.007637  p :     0.022199
      px      :     0.006968
      py      :     0.007594
 16 H s       :     0.851004  s :     0.851004
      pz      :     0.020323  p :     0.046434
      px      :     0.011056
      py      :     0.015055


                     *******************************
                     * LOEWDIN POPULATION ANALYSIS *
                     *******************************

----------------------
LOEWDIN ATOMIC CHARGES
----------------------
   0 C :   -0.055920
   1 C :   -0.053585
   2 C :   -0.061387
   3 C :   -0.003638
   4 C :   -0.002997
   5 N :   -0.106220
   6 H :    0.024359
   7 H :    0.025205
   8 H :    0.027091
   9 H :    0.032152
  10 H :    0.018808
  11 H :    0.031701
  12 H :    0.025778
  13 H :    0.020186
  14 H :    0.012505
  15 H :    0.020071
  16 H :    0.045893

-------------------------------
LOEWDIN REDUCED ORBITAL CHARGES
-------------------------------
  0 C s       :     2.840353  s :     2.840353
      pz      :     1.068948  p :     3.146154
      px      :     1.014387
      py      :     1.062819
      dz2     :     0.013244  d :     0.069413
      dxz     :     0.009716
      dyz     :     0.016160
      dx2y2   :     0.012950
      dxy     :     0.017343
  1 C s       :     2.837802  s :     2.837802
      pz      :     1.045611  p :     3.108951
      px      :     1.030047
      py      :     1.033294
      dz2     :     0.020501  d :     0.106832
      dxz     :     0.013658
      dyz     :     0.025885
      dx2y2   :     0.024498
      dxy     :     0.022290
  2 C s       :     2.836824  s :     2.836824
      pz      :     1.040498  p :     3.154904
      px      :     1.060745
      py      :     1.053661
      dz2     :     0.019539  d :     0.069659
      dxz     :     0.005787
      dyz     :     0.017424
      dx2y2   :     0.012140
      dxy     :     0.014769
  3 C s       :     2.834359  s :     2.834359
      pz      :     0.992595  p :     3.032198
      px      :     1.032745
      py      :     1.006858
      dz2     :     0.027499  d :     0.137082
      dxz     :     0.022110
      dyz     :     0.034167
      dx2y2   :     0.029116
      dxy     :     0.024189
  4 C s       :     2.833659  s :     2.833659
      pz      :     1.053432  p :     3.054521
      px      :     0.967777
      py      :     1.033313
      dz2     :     0.011224  d :     0.114817
      dxz     :     0.030163
      dyz     :     0.016959
      dx2y2   :     0.023100
      dxy     :     0.033372
  5 N s       :     3.221846  s :     3.221846
      pz      :     1.090993  p :     3.827403
      px      :     1.202220
      py      :     1.534191
      dz2     :     0.010104  d :     0.056970
      dxz     :     0.008701
      dyz     :     0.020083
      dx2y2   :     0.007567
      dxy     :     0.010515
  6 H s       :     0.908949  s :     0.908949
      pz      :     0.013370  p :     0.066692
      px      :     0.021416
      py      :     0.031906
  7 H s       :     0.908140  s :     0.908140
      pz      :     0.031242  p :     0.066655
      px      :     0.014114
      py      :     0.021299
  8 H s       :     0.906226  s :     0.906226
      pz      :     0.029310  p :     0.066683
      px      :     0.016894
      py      :     0.020480
  9 H s       :     0.900103  s :     0.900103
      pz      :     0.031563  p :     0.067745
      px      :     0.014340
      py      :     0.021842
 10 H s       :     0.913364  s :     0.913364
      pz      :     0.033879  p :     0.067828
      px      :     0.013452
      py      :     0.020497
 11 H s       :     0.901020  s :     0.901020
      pz      :     0.014061  p :     0.067280
      px      :     0.021255
      py      :     0.031965
 12 H s       :     0.906387  s :     0.906387
      pz      :     0.013693  p :     0.067835
      px      :     0.038205
      py      :     0.015937
 13 H s       :     0.911233  s :     0.911233
      pz      :     0.031665  p :     0.068581
      px      :     0.016837
      py      :     0.020079
 14 H s       :     0.915117  s :     0.915117
      pz      :     0.021582  p :     0.072379
      px      :     0.019063
      py      :     0.031733
 15 H s       :     0.910433  s :     0.910433
      pz      :     0.024122  p :     0.069497
      px      :     0.021462
      py      :     0.023913
 16 H s       :     0.826295  s :     0.826295
      pz      :     0.055239  p :     0.127813
      px      :     0.027152
      py      :     0.045421


                      *****************************
                      * MAYER POPULATION ANALYSIS *
                      *****************************

  NA   - Mulliken gross atomic population
  ZA   - Total nuclear charge
  QA   - Mulliken gross atomic charge
  VA   - Mayer's total valence
  BVA  - Mayer's bonded valence
  FA   - Mayer's free valence

  ATOM       NA         ZA         QA         VA         BVA        FA
  0 C      5.9782     6.0000     0.0218     3.9663     3.9663    -0.0000
  1 C      6.0699     6.0000    -0.0699     4.1564     4.1564    -0.0000
  2 C      6.0049     6.0000    -0.0049     3.9897     3.9897    -0.0000
  3 C      6.0705     6.0000    -0.0705     4.0822     4.0822     0.0000
  4 C      5.9636     6.0000     0.0364     3.9929     3.9929     0.0000
  5 N      7.2024     7.0000    -0.2024     3.0174     3.0174     0.0000
  6 H      0.9835     1.0000     0.0165     0.9876     0.9876    -0.0000
  7 H      0.9844     1.0000     0.0156     0.9967     0.9967     0.0000
  8 H      0.9813     1.0000     0.0187     0.9918     0.9918    -0.0000
  9 H      0.9868     1.0000     0.0132     0.9664     0.9664    -0.0000
 10 H      0.9921     1.0000     0.0079     1.0047     1.0047    -0.0000
 11 H      0.9801     1.0000     0.0199     0.9933     0.9933     0.0000
 12 H      0.9751     1.0000     0.0249     0.9930     0.9930     0.0000
 13 H      0.9855     1.0000     0.0145     0.9803     0.9803    -0.0000
 14 H      0.9755     1.0000     0.0245     0.9886     0.9886     0.0000
 15 H      0.9689     1.0000     0.0311     0.9728     0.9728     0.0000
 16 H      0.8974     1.0000     0.1026     1.0129     1.0129     0.0000

  Mayer bond orders larger than 0.1
B(  0-C ,  1-C ) :   1.0827 B(  0-C ,  6-H ) :   0.9598 B(  0-C ,  7-H ) :   0.9631 
B(  0-C ,  8-H ) :   0.9592 B(  1-C ,  2-C ) :   1.0846 B(  1-C ,  3-C ) :   1.0174 
B(  1-C ,  9-H ) :   0.9006 B(  2-C , 10-H ) :   0.9553 B(  2-C , 11-H ) :   0.9522 
B(  2-C , 12-H ) :   0.9521 B(  3-C ,  4-C ) :   1.0623 B(  3-C ,  5-N ) :   0.9846 
B(  3-C , 13-H ) :   0.9329 B(  4-C ,  5-N ) :   1.0156 B(  4-C , 14-H ) :   0.9346 
B(  4-C , 15-H ) :   0.9371 B(  5-N , 16-H ) :   0.9529 


 *********************************** NBO 6.0 ***********************************
             N A T U R A L   A T O M I C   O R B I T A L   A N D
          N A T U R A L   B O N D   O R B I T A L   A N A L Y S I S
 ***************************** Kiya KiyaLu (100703) ****************************
  (c) Copyright 1996-2015 Board of Regents of the University of Wisconsin System
      on behalf of the Theoretical Chemistry Institute.  All rights reserved.

          Cite this program as:

          NBO 6.0.  E. D. Glendening, J. K. Badenhoop, A. E. Reed,
          J. E. Carpenter, J. A. Bohmann, C. M. Morales, C. R. Landis,
          and F. Weinhold (Theoretical Chemistry Institute, University
          of Wisconsin, Madison, WI, 2013); http://nbo6.chem.wisc.edu/

       /NPA    / : Natural Population Analysis
       /NBO    / : Natural Bond Orbital Analysis
       /AONBO  / : Write the AO to NBO transformation to lfn77
       /FILE   / : Set to 0415

 Filename set to 0415

 Job title:  *** NBO job generated by orca_scf

 Warning: MOs are non-orthogonal; program will continue

 Warning: -2386.50802 electrons reside outside the linearly independent MO space


 NATURAL POPULATIONS:  Natural atomic orbital occupancies

  NAO Atom No lang   Type(AO)    Occupancy      Energy
 -------------------------------------------------------
   1    C  1  s      Cor( 1s)     1.99919      -9.76842
   2    C  1  s      Val( 2s)     1.08182      -0.20879
   3    C  1  s      Ryd( 3s)     0.00099       0.84778
   4    C  1  px     Val( 2p)     1.09287      -0.06384
   5    C  1  px     Ryd( 3p)     0.00198       0.50593
   6    C  1  py     Val( 2p)     1.22879      -0.06543
   7    C  1  py     Ryd( 3p)     0.00272       0.64454
   8    C  1  pz     Val( 2p)     1.23370      -0.06653
   9    C  1  pz     Ryd( 3p)     0.00228       0.60662
  10    C  1  dxy    Ryd( 3d)     0.00058       2.23360
  11    C  1  dxz    Ryd( 3d)     0.00035       2.10200
  12    C  1  dyz    Ryd( 3d)     0.00059       2.32581
  13    C  1  dx2y2  Ryd( 3d)     0.00037       2.16063
  14    C  1  dz2    Ryd( 3d)     0.00044       2.23673

  15    C  2  s      Cor( 1s)     1.99895      -9.77867
  16    C  2  s      Val( 2s)     0.94331      -0.17597
  17    C  2  s      Ryd( 3s)     0.00099       0.90272
  18    C  2  px     Val( 2p)     1.06485      -0.07913
  19    C  2  px     Ryd( 3p)     0.00275       0.61867
  20    C  2  py     Val( 2p)     1.10243      -0.07425
  21    C  2  py     Ryd( 3p)     0.00203       0.62453
  22    C  2  pz     Val( 2p)     1.15690      -0.07351
  23    C  2  pz     Ryd( 3p)     0.00364       0.76495
  24    C  2  dxy    Ryd( 3d)     0.00074       2.13611
  25    C  2  dxz    Ryd( 3d)     0.00055       2.02376
  26    C  2  dyz    Ryd( 3d)     0.00078       2.33624
  27    C  2  dx2y2  Ryd( 3d)     0.00080       2.14527
  28    C  2  dz2    Ryd( 3d)     0.00068       2.20465

  29    C  3  s      Cor( 1s)     1.99919      -9.77338
  30    C  3  s      Val( 2s)     1.07865      -0.21464
  31    C  3  s      Ryd( 3s)     0.00109       0.83385
  32    C  3  px     Val( 2p)     1.22615      -0.07288
  33    C  3  px     Ryd( 3p)     0.00311       0.63631
  34    C  3  py     Val( 2p)     1.19992      -0.07502
  35    C  3  py     Ryd( 3p)     0.00335       0.61677
  36    C  3  pz     Val( 2p)     1.14811      -0.06969
  37    C  3  pz     Ryd( 3p)     0.00123       0.51261
  38    C  3  dxy    Ryd( 3d)     0.00050       2.28132
  39    C  3  dxz    Ryd( 3d)     0.00019       2.04891
  40    C  3  dyz    Ryd( 3d)     0.00053       2.24481
  41    C  3  dx2y2  Ryd( 3d)     0.00042       2.20050
  42    C  3  dz2    Ryd( 3d)     0.00068       2.28061

  43    C  4  s      Cor( 1s)     1.99898      -9.79748
  44    C  4  s      Val( 2s)     0.91158      -0.15854
  45    C  4  s      Ryd( 3s)     0.00396       0.73055
  46    C  4  px     Val( 2p)     1.07277      -0.07676
  47    C  4  px     Ryd( 3p)     0.00422       0.68766
  48    C  4  py     Val( 2p)     1.01791      -0.05696
  49    C  4  py     Ryd( 3p)     0.00489       0.64032
  50    C  4  pz     Val( 2p)     1.04169      -0.06741
  51    C  4  pz     Ryd( 3p)     0.00507       0.74400
  52    C  4  dxy    Ryd( 3d)     0.00098       2.09798
  53    C  4  dxz    Ryd( 3d)     0.00121       2.05256
  54    C  4  dyz    Ryd( 3d)     0.00162       2.26753
  55    C  4  dx2y2  Ryd( 3d)     0.00126       2.15014
  56    C  4  dz2    Ryd( 3d)     0.00124       2.14304

  57    C  5  s      Cor( 1s)     1.99909      -9.79810
  58    C  5  s      Val( 2s)     1.00297      -0.18831
  59    C  5  s      Ryd( 3s)     0.00141       0.67115
  60    C  5  px     Val( 2p)     1.01208      -0.05197
  61    C  5  px     Ryd( 3p)     0.00389       0.47333
  62    C  5  py     Val( 2p)     1.11805      -0.06225
  63    C  5  py     Ryd( 3p)     0.00339       0.65473
  64    C  5  pz     Val( 2p)     1.10110      -0.07666
  65    C  5  pz     Ryd( 3p)     0.00145       0.58975
  66    C  5  dxy    Ryd( 3d)     0.00132       2.28382
  67    C  5  dxz    Ryd( 3d)     0.00128       2.22068
  68    C  5  dyz    Ryd( 3d)     0.00096       2.14887
  69    C  5  dx2y2  Ryd( 3d)     0.00153       2.11493
  70    C  5  dz2    Ryd( 3d)     0.00076       1.97443

  71    N  6  s      Cor( 1s)     1.99945     -13.82107
  72    N  6  s      Val( 2s)     1.44448      -0.49223
  73    N  6  s      Ryd( 3s)     0.00071       1.21595
  74    N  6  px     Val( 2p)     1.28974      -0.15547
  75    N  6  px     Ryd( 3p)     0.00156       0.88450
  76    N  6  py     Val( 2p)     1.65443      -0.18313
  77    N  6  py     Ryd( 3p)     0.00566       0.84259
  78    N  6  pz     Val( 2p)     1.25240      -0.15268
  79    N  6  pz     Ryd( 3p)     0.00302       0.92245
  80    N  6  dxy    Ryd( 3d)     0.00194       2.41665
  81    N  6  dxz    Ryd( 3d)     0.00046       2.44635
  82    N  6  dyz    Ryd( 3d)     0.00246       2.74544
  83    N  6  dx2y2  Ryd( 3d)     0.00213       2.32012
  84    N  6  dz2    Ryd( 3d)     0.00105       2.52532

  85    H  7  s      Val( 1s)     0.77381       0.07019
  86    H  7  s      Ryd( 2s)     0.00159       0.34194
  87    H  7  px     Ryd( 2p)     0.00030       1.87937
  88    H  7  py     Ryd( 2p)     0.00059       2.12746
  89    H  7  pz     Ryd( 2p)     0.00016       1.74898

  90    H  8  s      Val( 1s)     0.77773       0.06710
  91    H  8  s      Ryd( 2s)     0.00205       0.35626
  92    H  8  px     Ryd( 2p)     0.00013       1.71920
  93    H  8  py     Ryd( 2p)     0.00036       1.91855
  94    H  8  pz     Ryd( 2p)     0.00058       2.12678

  95    H  9  s      Val( 1s)     0.77083       0.07225
  96    H  9  s      Ryd( 2s)     0.00156       0.34624
  97    H  9  px     Ryd( 2p)     0.00020       1.78198
  98    H  9  py     Ryd( 2p)     0.00033       1.90011
  99    H  9  pz     Ryd( 2p)     0.00053       2.07840

 100    H 10  s      Val( 1s)     0.75530       0.07992
 101    H 10  s      Ryd( 2s)     0.00405       0.33837
 102    H 10  px     Ryd( 2p)     0.00010       1.78736
 103    H 10  py     Ryd( 2p)     0.00036       1.89623
 104    H 10  pz     Ryd( 2p)     0.00069       2.09433

 105    H 11  s      Val( 1s)     0.78544       0.05389
 106    H 11  s      Ryd( 2s)     0.00300       0.37284
 107    H 11  px     Ryd( 2p)     0.00016       1.74285
 108    H 11  py     Ryd( 2p)     0.00030       1.84615
 109    H 11  pz     Ryd( 2p)     0.00068       2.15691

 110    H 12  s      Val( 1s)     0.76189       0.06888
 111    H 12  s      Ryd( 2s)     0.00148       0.34035
 112    H 12  px     Ryd( 2p)     0.00033       1.90517
 113    H 12  py     Ryd( 2p)     0.00059       2.14393
 114    H 12  pz     Ryd( 2p)     0.00015       1.71063

 115    H 13  s      Val( 1s)     0.77059       0.06692
 116    H 13  s      Ryd( 2s)     0.00166       0.36759
 117    H 13  px     Ryd( 2p)     0.00077       2.25575
 118    H 13  py     Ryd( 2p)     0.00022       1.77899
 119    H 13  pz     Ryd( 2p)     0.00013       1.69566

 120    H 14  s      Val( 1s)     0.77512       0.09051
 121    H 14  s      Ryd( 2s)     0.00286       0.33228
 122    H 14  px     Ryd( 2p)     0.00016       1.87170
 123    H 14  py     Ryd( 2p)     0.00035       1.93013
 124    H 14  pz     Ryd( 2p)     0.00063       2.12508

 125    H 15  s      Val( 1s)     0.79703       0.06533
 126    H 15  s      Ryd( 2s)     0.00194       0.36766
 127    H 15  px     Ryd( 2p)     0.00024       1.95251
 128    H 15  py     Ryd( 2p)     0.00054       2.03090
 129    H 15  pz     Ryd( 2p)     0.00034       1.82901

 130    H 16  s      Val( 1s)     0.78469       0.08142
 131    H 16  s      Ryd( 2s)     0.00220       0.31394
 132    H 16  px     Ryd( 2p)     0.00028       2.02699
 133    H 16  py     Ryd( 2p)     0.00041       1.93244
 134    H 16  pz     Ryd( 2p)     0.00034       1.89223

 135    H 17  s      Val( 1s)     0.64423       0.08213
 136    H 17  s      Ryd( 2s)     0.00188       0.45490
 137    H 17  px     Ryd( 2p)     0.00058       1.70890
 138    H 17  py     Ryd( 2p)     0.00098       1.85077
 139    H 17  pz     Ryd( 2p)     0.00120       2.27145

   1 low occupancy (<1.9990e) core orbital  found on  C  2
   1 low occupancy (<1.9990e) core orbital  found on  C  4


 Summary of Natural Population Analysis:

                                     Natural Population
             Natural    ---------------------------------------------
  Atom No    Charge        Core      Valence    Rydberg      Total
 --------------------------------------------------------------------
    C  1   -0.64668      1.99919     4.63718    0.01031     6.64668
    C  2   -0.27940      1.99895     4.26748    0.01297     6.27940
    C  3   -0.66313      1.99919     4.65284    0.01110     6.66313
    C  4   -0.06737      1.99898     4.04395    0.02444     6.06737
    C  5   -0.24927      1.99909     4.23419    0.01599     6.24927
    N  6   -0.65950      1.99945     5.64105    0.01900     7.65950
    H  7    0.22354      0.00000     0.77381    0.00265     0.77646
    H  8    0.21914      0.00000     0.77773    0.00313     0.78086
    H  9    0.22656      0.00000     0.77083    0.00261     0.77344
    H 10    0.23950      0.00000     0.75530    0.00520     0.76050
    H 11    0.21042      0.00000     0.78544    0.00414     0.78958
    H 12    0.23556      0.00000     0.76189    0.00255     0.76444
    H 13    0.22663      0.00000     0.77059    0.00278     0.77337
    H 14    0.22089      0.00000     0.77512    0.00399     0.77911
    H 15    0.19990      0.00000     0.79703    0.00306     0.80010
    H 16    0.21207      0.00000     0.78469    0.00324     0.78793
    H 17    0.35113      0.00000     0.64423    0.00464     0.64887
 ====================================================================
 * Total *  0.00000     11.99486    35.87335    0.13179    48.00000

                                 Natural Population
 ---------------------------------------------------------
   Core                      11.99486 ( 99.9571% of   12)
   Valence                   35.87335 ( 99.6482% of   36)
   Natural Minimal Basis     47.86821 ( 99.7254% of   48)
   Natural Rydberg Basis      0.13179 (  0.2746% of   48)
 ---------------------------------------------------------

    Atom No         Natural Electron Configuration
 ----------------------------------------------------------------------------
      C  1      [core]2s( 1.08)2p( 3.56)3p( 0.01)
      C  2      [core]2s( 0.94)2p( 3.32)3p( 0.01)
      C  3      [core]2s( 1.08)2p( 3.57)3p( 0.01)
      C  4      [core]2s( 0.91)2p( 3.13)3p( 0.01)3d( 0.01)
      C  5      [core]2s( 1.00)2p( 3.23)3p( 0.01)3d( 0.01)
      N  6      [core]2s( 1.44)2p( 4.20)3p( 0.01)3d( 0.01)
      H  7            1s( 0.77)
      H  8            1s( 0.78)
      H  9            1s( 0.77)
      H 10            1s( 0.76)
      H 11            1s( 0.79)
      H 12            1s( 0.76)
      H 13            1s( 0.77)
      H 14            1s( 0.78)
      H 15            1s( 0.80)
      H 16            1s( 0.78)
      H 17            1s( 0.64)


 NATURAL BOND ORBITAL ANALYSIS:

                            Occupancies       Lewis Structure    Low   High
         Max    Occ     -------------------  -----------------   occ   occ
  Cycle  Ctr   Thresh    Lewis   non-Lewis     CR  BD  nC  LP    (L)   (NL)
 ============================================================================
    1     2     1.90    47.57371   0.42629      6  17   0   1     0      0
 ----------------------------------------------------------------------------

 Structure accepted: No low occupancy Lewis orbitals

 -------------------------------------------------------
   Core                     11.99486 ( 99.957% of  12)
   Valence Lewis            35.57885 ( 98.830% of  36)
  ==================      =============================
   Total Lewis              47.57371 ( 99.112% of  48)
  -----------------------------------------------------
   Valence non-Lewis         0.33671 (  0.701% of  48)
   Rydberg non-Lewis         0.08958 (  0.187% of  48)
  ==================      =============================
   Total non-Lewis           0.42629 (  0.888% of  48)
 -------------------------------------------------------


     (Occupancy)   Bond orbital / Coefficients / Hybrids
 ------------------ Lewis ------------------------------------------------------
   1. (1.99919) CR ( 1) C  1            s(100.00%)
                                         1.0000  0.0000  0.0000  0.0000  0.0000
                                         0.0000  0.0000  0.0000  0.0000  0.0000
                                         0.0000  0.0000  0.0000  0.0000
   2. (1.99895) CR ( 1) C  2            s(100.00%)
                                         1.0000  0.0000  0.0000  0.0000  0.0000
                                         0.0000  0.0000  0.0000  0.0000  0.0000
                                         0.0000  0.0000  0.0000  0.0000
   3. (1.99919) CR ( 1) C  3            s(100.00%)
                                         1.0000  0.0000  0.0000  0.0000  0.0000
                                         0.0000  0.0000  0.0000  0.0000  0.0000
                                         0.0000  0.0000  0.0000  0.0000
   4. (1.99898) CR ( 1) C  4            s(100.00%)
                                         1.0000  0.0000  0.0000  0.0000  0.0000
                                         0.0000  0.0000  0.0000  0.0000  0.0000
                                         0.0000  0.0000  0.0000  0.0000
   5. (1.99909) CR ( 1) C  5            s(100.00%)
                                         1.0000  0.0000  0.0000  0.0000  0.0000
                                         0.0000  0.0000  0.0000  0.0000  0.0000
                                         0.0000  0.0000  0.0000  0.0000
   6. (1.99945) CR ( 1) N  6            s(100.00%)
                                         1.0000  0.0000  0.0000  0.0000  0.0000
                                         0.0000  0.0000  0.0000  0.0000  0.0000
                                         0.0000  0.0000  0.0000  0.0000
   7. (1.94515) LP ( 1) N  6            s( 35.78%)p 1.79( 64.12%)d 0.00(  0.10%)
                                         0.0000  0.5981 -0.0075 -0.1018 -0.0019
                                        -0.7928 -0.0337 -0.0323 -0.0065 -0.0074
                                        -0.0019 -0.0003  0.0256  0.0181
   8. (1.97437) BD ( 1) C  1- C  2
               ( 49.02%)   0.7001* C  1 s( 30.52%)p 2.28( 69.45%)d 0.00(  0.03%)
                                         0.0000  0.5524 -0.0034  0.8112 -0.0074
                                         0.1658  0.0090 -0.0931 -0.0087  0.0061
                                        -0.0034 -0.0007  0.0145 -0.0088
               ( 50.98%)   0.7140* C  2 s( 26.01%)p 2.84( 73.96%)d 0.00(  0.03%)
                                         0.0000  0.5100  0.0038 -0.8396 -0.0062
                                        -0.1612  0.0114  0.0916 -0.0117  0.0069
                                        -0.0039 -0.0001  0.0139 -0.0092
   9. (1.98742) BD ( 1) C  1- H  7
               ( 61.24%)   0.7826* C  1 s( 23.15%)p 3.32( 76.82%)d 0.00(  0.04%)
                                         0.0000  0.4811  0.0039 -0.4699 -0.0126
                                         0.7363 -0.0099  0.0701 -0.0027 -0.0146
                                        -0.0012  0.0024 -0.0080 -0.0095
               ( 38.76%)   0.6226* H  7 s( 99.91%)p 0.00(  0.09%)
                                         0.9995 -0.0011  0.0173 -0.0251 -0.0024
  10. (1.98783) BD ( 1) C  1- H  8
               ( 61.16%)   0.7820* C  1 s( 23.04%)p 3.34( 76.93%)d 0.00(  0.04%)
                                         0.0000  0.4799 -0.0021 -0.1467 -0.0199
                                        -0.4761 -0.0027  0.7216 -0.0022  0.0025
                                        -0.0037 -0.0152 -0.0044  0.0103
               ( 38.84%)   0.6232* H  8 s( 99.90%)p 0.00(  0.10%)
                                         0.9995 -0.0025  0.0067  0.0174 -0.0249
  11. (1.98731) BD ( 1) C  1- H  9
               ( 61.40%)   0.7836* C  1 s( 23.23%)p 3.30( 76.73%)d 0.00(  0.04%)
                                         0.0000  0.4820  0.0033 -0.3143 -0.0148
                                        -0.4507  0.0033 -0.6820  0.0077  0.0057
                                         0.0087  0.0140 -0.0027  0.0085
               ( 38.60%)   0.6213* H  9 s( 99.91%)p 0.00(  0.09%)
                                         0.9995 -0.0012  0.0120  0.0154  0.0232
  12. (1.97891) BD ( 1) C  2- C  3
               ( 50.53%)   0.7108* C  2 s( 26.69%)p 2.74( 73.27%)d 0.00(  0.03%)
                                         0.0000  0.5166  0.0053  0.2984  0.0029
                                         0.4564  0.0173  0.6596 -0.0092  0.0052
                                         0.0088  0.0132 -0.0020  0.0079
               ( 49.47%)   0.7033* C  3 s( 30.60%)p 2.27( 69.36%)d 0.00(  0.03%)
                                         0.0000  0.5532 -0.0047 -0.2681 -0.0010
                                        -0.4635  0.0148 -0.6377 -0.0062  0.0055
                                         0.0082  0.0137 -0.0037  0.0067
  13. (1.97223) BD ( 1) C  2- C  4
               ( 50.54%)   0.7109* C  2 s( 27.09%)p 2.69( 72.87%)d 0.00(  0.03%)
                                         0.0000  0.5205  0.0033  0.4429  0.0021
                                        -0.7215  0.0028 -0.1090 -0.0145 -0.0134
                                        -0.0016  0.0036 -0.0083 -0.0093
               ( 49.46%)   0.7033* C  4 s( 33.57%)p 1.98( 66.40%)d 0.00(  0.03%)
                                         0.0000  0.5793 -0.0094 -0.3874 -0.0009
                                         0.6989 -0.0080  0.1555 -0.0338 -0.0120
                                        -0.0016  0.0090 -0.0079 -0.0057
  14. (1.95556) BD ( 1) C  2- H 10
               ( 62.19%)   0.7886* C  2 s( 20.17%)p 3.96( 79.79%)d 0.00(  0.03%)
                                         0.0000  0.4490 -0.0103  0.0970 -0.0011
                                         0.4946 -0.0014 -0.7374  0.0082  0.0021
                                        -0.0031 -0.0142 -0.0044  0.0105
               ( 37.81%)   0.6149* H 10 s( 99.88%)p 0.00(  0.12%)
                                         0.9994 -0.0067 -0.0043 -0.0189  0.0285
  15. (1.98693) BD ( 1) C  3- H 11
               ( 60.81%)   0.7798* C  3 s( 22.88%)p 3.37( 77.08%)d 0.00(  0.04%)
                                         0.0000  0.4784 -0.0030 -0.0574  0.0047
                                        -0.4387  0.0165  0.7580  0.0151  0.0016
                                        -0.0024 -0.0147 -0.0045  0.0117
               ( 39.19%)   0.6260* H 11 s( 99.90%)p 0.00(  0.10%)
                                         0.9995 -0.0036  0.0025  0.0125 -0.0284
  16. (1.98540) BD ( 1) C  3- H 12
               ( 61.81%)   0.7862* C  3 s( 23.04%)p 3.34( 76.93%)d 0.00(  0.04%)
                                         0.0000  0.4799  0.0059 -0.4760  0.0133
                                         0.7317  0.0020  0.0844  0.0090 -0.0157
                                        -0.0016  0.0021 -0.0060 -0.0094
               ( 38.19%)   0.6180* H 12 s( 99.91%)p 0.00(  0.09%)
                                         0.9995 -0.0009  0.0160 -0.0258 -0.0035
  17. (1.98747) BD ( 1) C  3- H 13
               ( 61.43%)   0.7838* C  3 s( 23.41%)p 3.27( 76.56%)d 0.00(  0.04%)
                                         0.0000  0.4838  0.0029  0.8352 -0.0038
                                         0.2381  0.0138 -0.1045  0.0108  0.0080
                                        -0.0042 -0.0013  0.0139 -0.0091
               ( 38.57%)   0.6210* H 13 s( 99.90%)p 0.00(  0.10%)
                                         0.9995 -0.0013 -0.0296 -0.0100  0.0033
  18. (1.96422) BD ( 1) C  4- C  5
               ( 50.41%)   0.7100* C  4 s( 22.84%)p 3.38( 77.09%)d 0.00(  0.07%)
                                         0.0000  0.4776  0.0170  0.8702 -0.0043
                                         0.0985 -0.0106 -0.0576 -0.0207 -0.0054
                                         0.0109 -0.0024  0.0196 -0.0123
               ( 49.59%)   0.7042* C  5 s( 24.38%)p 3.10( 75.55%)d 0.00(  0.07%)
                                         0.0000  0.4937  0.0041 -0.6502  0.0139
                                         0.3274 -0.0097 -0.4745 -0.0042 -0.0055
                                         0.0115 -0.0018  0.0201 -0.0125
  19. (1.96563) BD ( 1) C  4- N  6
               ( 40.57%)   0.6369* C  4 s( 17.61%)p 4.67( 82.23%)d 0.01(  0.16%)
                                         0.0000  0.4196  0.0077 -0.1205 -0.0080
                                        -0.5692 -0.0397  0.6944 -0.0026 -0.0079
                                         0.0091 -0.0331 -0.0090  0.0155
               ( 59.43%)   0.7709* N  6 s( 22.50%)p 3.44( 77.36%)d 0.01(  0.14%)
                                         0.0000  0.4743  0.0014 -0.5094  0.0170
                                         0.4450  0.0179 -0.5617  0.0011 -0.0161
                                         0.0009 -0.0288 -0.0166  0.0039
  20. (1.97509) BD ( 1) C  4- H 14
               ( 61.68%)   0.7854* C  4 s( 25.88%)p 2.86( 74.09%)d 0.00(  0.03%)
                                         0.0000  0.5087 -0.0081 -0.2772  0.0076
                                        -0.4195  0.0016 -0.6985  0.0132  0.0031
                                         0.0056  0.0152 -0.0038  0.0057
               ( 38.32%)   0.6190* H 14 s( 99.89%)p 0.00(  0.11%)
                                         0.9994 -0.0069  0.0097  0.0170  0.0269
  21. (1.96823) BD ( 1) C  5- N  6
               ( 40.75%)   0.6384* C  5 s( 17.77%)p 4.62( 82.08%)d 0.01(  0.16%)
                                         0.0000  0.4214  0.0068 -0.3968  0.0034
                                        -0.5340 -0.0296  0.6142  0.0051  0.0226
                                        -0.0247 -0.0172  0.0121 -0.0032
               ( 59.25%)   0.7697* N  6 s( 20.05%)p 3.98( 79.82%)d 0.01(  0.14%)
                                         0.0000  0.4477  0.0030  0.8385 -0.0182
                                         0.2369  0.0231 -0.1950 -0.0098  0.0325
                                        -0.0122 -0.0122  0.0035 -0.0043
  22. (1.98895) BD ( 1) C  5- H 15
               ( 60.51%)   0.7779* C  5 s( 29.11%)p 2.43( 70.85%)d 0.00(  0.04%)
                                         0.0000  0.5394 -0.0102  0.4086  0.0263
                                         0.6041 -0.0129  0.4190 -0.0129  0.0081
                                         0.0065  0.0149 -0.0077 -0.0011
               ( 39.49%)   0.6284* H 15 s( 99.91%)p 0.00(  0.09%)
                                         0.9995 -0.0043 -0.0157 -0.0220 -0.0135
  23. (1.98706) BD ( 1) C  5- H 16
               ( 61.17%)   0.7821* C  5 s( 28.64%)p 2.49( 71.33%)d 0.00(  0.04%)
                                         0.0000  0.5351  0.0019  0.5013  0.0077
                                        -0.4912  0.0128 -0.4694  0.0126 -0.0097
                                        -0.0077  0.0137 -0.0031  0.0004
               ( 38.83%)   0.6231* H 16 s( 99.91%)p 0.00(  0.09%)
                                         0.9995 -0.0052 -0.0180  0.0183  0.0169
  24. (1.98108) BD ( 1) N  6- H 17
               ( 67.97%)   0.8244* N  6 s( 21.60%)p 3.63( 78.29%)d 0.01(  0.11%)
                                         0.0000  0.4647  0.0074 -0.1571  0.0101
                                         0.3371  0.0199  0.8018 -0.0361 -0.0039
                                        -0.0012  0.0299 -0.0138  0.0058
               ( 32.03%)   0.5660* H 17 s( 99.80%)p 0.00(  0.20%)
                                         0.9990 -0.0051  0.0085 -0.0126 -0.0421
 ---------------- non-Lewis ----------------------------------------------------
  25. (0.01932) BD*( 1) C  1- C  2
               ( 50.98%)   0.7140* C  1 s( 30.52%)p 2.28( 69.45%)d 0.00(  0.03%)
                                         0.0000  0.5524 -0.0034  0.8112 -0.0074
                                         0.1658  0.0090 -0.0931 -0.0087  0.0061
                                        -0.0034 -0.0007  0.0145 -0.0088
               ( 49.02%)  -0.7001* C  2 s( 26.01%)p 2.84( 73.96%)d 0.00(  0.03%)
                                         0.0000  0.5100  0.0038 -0.8396 -0.0062
                                        -0.1612  0.0114  0.0916 -0.0117  0.0069
                                        -0.0039 -0.0001  0.0139 -0.0092
  26. (0.00695) BD*( 1) C  1- H  7
               ( 38.76%)   0.6226* C  1 s( 23.15%)p 3.32( 76.82%)d 0.00(  0.04%)
                                         0.0000 -0.4811 -0.0039  0.4699  0.0126
                                        -0.7363  0.0099 -0.0701  0.0027  0.0146
                                         0.0012 -0.0024  0.0080  0.0095
               ( 61.24%)  -0.7826* H  7 s( 99.91%)p 0.00(  0.09%)
                                        -0.9995  0.0011 -0.0173  0.0251  0.0024
  27. (0.01039) BD*( 1) C  1- H  8
               ( 38.84%)   0.6232* C  1 s( 23.04%)p 3.34( 76.93%)d 0.00(  0.04%)
                                         0.0000 -0.4799  0.0021  0.1467  0.0199
                                         0.4761  0.0027 -0.7216  0.0022 -0.0025
                                         0.0037  0.0152  0.0044 -0.0103
               ( 61.16%)  -0.7820* H  8 s( 99.90%)p 0.00(  0.10%)
                                        -0.9995  0.0025 -0.0067 -0.0174  0.0249
  28. (0.00714) BD*( 1) C  1- H  9
               ( 38.60%)   0.6213* C  1 s( 23.23%)p 3.30( 76.73%)d 0.00(  0.04%)
                                         0.0000 -0.4820 -0.0033  0.3143  0.0148
                                         0.4507 -0.0033  0.6820 -0.0077 -0.0057
                                        -0.0087 -0.0140  0.0027 -0.0085
               ( 61.40%)  -0.7836* H  9 s( 99.91%)p 0.00(  0.09%)
                                        -0.9995  0.0012 -0.0120 -0.0154 -0.0232
  29. (0.01998) BD*( 1) C  2- C  3
               ( 49.47%)   0.7033* C  2 s( 26.69%)p 2.74( 73.27%)d 0.00(  0.03%)
                                         0.0000 -0.5166 -0.0053 -0.2984 -0.0029
                                        -0.4564 -0.0173 -0.6596  0.0092 -0.0052
                                        -0.0088 -0.0132  0.0020 -0.0079
               ( 50.53%)  -0.7108* C  3 s( 30.60%)p 2.27( 69.36%)d 0.00(  0.03%)
                                         0.0000 -0.5532  0.0047  0.2681  0.0010
                                         0.4635 -0.0148  0.6377  0.0062 -0.0055
                                        -0.0082 -0.0137  0.0037 -0.0067
  30. (0.04166) BD*( 1) C  2- C  4
               ( 49.46%)   0.7033* C  2 s( 27.09%)p 2.69( 72.87%)d 0.00(  0.03%)
                                         0.0000 -0.5205 -0.0033 -0.4429 -0.0021
                                         0.7215 -0.0028  0.1090  0.0145  0.0134
                                         0.0016 -0.0036  0.0083  0.0093
               ( 50.54%)  -0.7109* C  4 s( 33.57%)p 1.98( 66.40%)d 0.00(  0.03%)
                                         0.0000 -0.5793  0.0094  0.3874  0.0009
                                        -0.6989  0.0080 -0.1555  0.0338  0.0120
                                         0.0016 -0.0090  0.0079  0.0057
  31. (0.02707) BD*( 1) C  2- H 10
               ( 37.81%)   0.6149* C  2 s( 20.17%)p 3.96( 79.79%)d 0.00(  0.03%)
                                         0.0000 -0.4490  0.0103 -0.0970  0.0011
                                        -0.4946  0.0014  0.7374 -0.0082 -0.0021
                                         0.0031  0.0142  0.0044 -0.0105
               ( 62.19%)  -0.7886* H 10 s( 99.88%)p 0.00(  0.12%)
                                        -0.9994  0.0067  0.0043  0.0189 -0.0285
  32. (0.01231) BD*( 1) C  3- H 11
               ( 39.19%)   0.6260* C  3 s( 22.88%)p 3.37( 77.08%)d 0.00(  0.04%)
                                         0.0000 -0.4784  0.0030  0.0574 -0.0047
                                         0.4387 -0.0165 -0.7580 -0.0151 -0.0016
                                         0.0024  0.0147  0.0045 -0.0117
               ( 60.81%)  -0.7798* H 11 s( 99.90%)p 0.00(  0.10%)
                                        -0.9995  0.0036 -0.0025 -0.0125  0.0284
  33. (0.00709) BD*( 1) C  3- H 12
               ( 38.19%)   0.6180* C  3 s( 23.04%)p 3.34( 76.93%)d 0.00(  0.04%)
                                         0.0000 -0.4799 -0.0059  0.4760 -0.0133
                                        -0.7317 -0.0020 -0.0844 -0.0090  0.0157
                                         0.0016 -0.0021  0.0060  0.0094
               ( 61.81%)  -0.7862* H 12 s( 99.91%)p 0.00(  0.09%)
                                        -0.9995  0.0009 -0.0160  0.0258  0.0035
  34. (0.00796) BD*( 1) C  3- H 13
               ( 38.57%)   0.6210* C  3 s( 23.41%)p 3.27( 76.56%)d 0.00(  0.04%)
                                         0.0000 -0.4838 -0.0029 -0.8352  0.0038
                                        -0.2381 -0.0138  0.1045 -0.0108 -0.0080
                                         0.0042  0.0013 -0.0139  0.0091
               ( 61.43%)  -0.7838* H 13 s( 99.90%)p 0.00(  0.10%)
                                        -0.9995  0.0013  0.0296  0.0100 -0.0033
  35. (0.02877) BD*( 1) C  4- C  5
               ( 49.59%)   0.7042* C  4 s( 22.84%)p 3.38( 77.09%)d 0.00(  0.07%)
                                         0.0000 -0.4776 -0.0170 -0.8702  0.0043
                                        -0.0985  0.0106  0.0576  0.0207  0.0054
                                        -0.0109  0.0024 -0.0196  0.0123
               ( 50.41%)  -0.7100* C  5 s( 24.38%)p 3.10( 75.55%)d 0.00(  0.07%)
                                         0.0000 -0.4937 -0.0041  0.6502 -0.0139
                                        -0.3274  0.0097  0.4745  0.0042  0.0055
                                        -0.0115  0.0018 -0.0201  0.0125
  36. (0.03573) BD*( 1) C  4- N  6
               ( 59.43%)   0.7709* C  4 s( 17.61%)p 4.67( 82.23%)d 0.01(  0.16%)
                                         0.0000  0.4196  0.0077 -0.1205 -0.0080
                                        -0.5692 -0.0397  0.6944 -0.0026 -0.0079
                                         0.0091 -0.0331 -0.0090  0.0155
               ( 40.57%)  -0.6369* N  6 s( 22.50%)p 3.44( 77.36%)d 0.01(  0.14%)
                                         0.0000  0.4743  0.0014 -0.5094  0.0170
                                         0.4450  0.0179 -0.5617  0.0011 -0.0161
                                         0.0009 -0.0288 -0.0166  0.0039
  37. (0.03113) BD*( 1) C  4- H 14
               ( 38.32%)   0.6190* C  4 s( 25.88%)p 2.86( 74.09%)d 0.00(  0.03%)
                                         0.0000 -0.5087  0.0081  0.2772 -0.0076
                                         0.4195 -0.0016  0.6985 -0.0132 -0.0031
                                        -0.0056 -0.0152  0.0038 -0.0057
               ( 61.68%)  -0.7854* H 14 s( 99.89%)p 0.00(  0.11%)
                                        -0.9994  0.0069 -0.0097 -0.0170 -0.0269
  38. (0.02207) BD*( 1) C  5- N  6
               ( 59.25%)   0.7697* C  5 s( 17.77%)p 4.62( 82.08%)d 0.01(  0.16%)
                                         0.0000  0.4214  0.0068 -0.3968  0.0034
                                        -0.5340 -0.0296  0.6142  0.0051  0.0226
                                        -0.0247 -0.0172  0.0121 -0.0032
               ( 40.75%)  -0.6384* N  6 s( 20.05%)p 3.98( 79.82%)d 0.01(  0.14%)
                                         0.0000  0.4477  0.0030  0.8385 -0.0182
                                         0.2369  0.0231 -0.1950 -0.0098  0.0325
                                        -0.0122 -0.0122  0.0035 -0.0043
  39. (0.02041) BD*( 1) C  5- H 15
               ( 39.49%)   0.6284* C  5 s( 29.11%)p 2.43( 70.85%)d 0.00(  0.04%)
                                         0.0000 -0.5394  0.0102 -0.4086 -0.0263
                                        -0.6041  0.0129 -0.4190  0.0129 -0.0081
                                        -0.0065 -0.0149  0.0077  0.0011
               ( 60.51%)  -0.7779* H 15 s( 99.91%)p 0.00(  0.09%)
                                        -0.9995  0.0043  0.0157  0.0220  0.0135
  40. (0.02275) BD*( 1) C  5- H 16
               ( 38.83%)   0.6231* C  5 s( 28.64%)p 2.49( 71.33%)d 0.00(  0.04%)
                                         0.0000 -0.5351 -0.0019 -0.5013 -0.0077
                                         0.4912 -0.0128  0.4694 -0.0126  0.0097
                                         0.0077 -0.0137  0.0031 -0.0004
               ( 61.17%)  -0.7821* H 16 s( 99.91%)p 0.00(  0.09%)
                                        -0.9995  0.0052  0.0180 -0.0183 -0.0169
  41. (0.01596) BD*( 1) N  6- H 17
               ( 32.03%)   0.5660* N  6 s( 21.60%)p 3.63( 78.29%)d 0.01(  0.11%)
                                         0.0000 -0.4647 -0.0074  0.1571 -0.0101
                                        -0.3371 -0.0199 -0.8018  0.0361  0.0039
                                         0.0012 -0.0299  0.0138 -0.0058
               ( 67.97%)  -0.8244* H 17 s( 99.80%)p 0.00(  0.20%)
                                        -0.9990  0.0051 -0.0085  0.0126  0.0421
  42. (0.00330) RY ( 1) C  1            s(  0.24%)p99.99( 91.66%)d33.59(  8.09%)
                                         0.0000  0.0039  0.0489  0.0056  0.1857
                                        -0.0130 -0.8381 -0.0084 -0.4236 -0.2479
                                        -0.1222 -0.0098  0.0572 -0.0343
  43. (0.00304) RY ( 2) C  1            s( 18.73%)p 3.95( 73.95%)d 0.39(  7.32%)
                                         0.0000  0.0150  0.4325  0.0079  0.4766
                                        -0.0026 -0.2142  0.0107  0.6828 -0.0911
                                         0.2084  0.1286  0.0350 -0.0609
  44. (0.00073) RY ( 3) C  1            s( 43.36%)p 1.04( 45.09%)d 0.27( 11.56%)
                                         0.0000  0.0082  0.6584 -0.0075  0.3768
                                        -0.0014  0.3376 -0.0017 -0.4415  0.1273
                                        -0.2615 -0.1279 -0.0890  0.0820
  45. (0.00018) RY ( 4) C  1            s( 28.18%)p 2.23( 62.92%)d 0.32(  8.90%)
                                         0.0000 -0.0189  0.5305  0.0134 -0.7255
                                         0.0058 -0.2530 -0.0049  0.1963  0.1327
                                        -0.1938 -0.0626 -0.1388  0.1033
  46. (0.00004) RY ( 5) C  1            s(  1.06%)p 4.62(  4.92%)d88.29( 94.01%)
  47. (0.00001) RY ( 6) C  1            s(  0.07%)p54.27(  3.99%)d99.99( 95.93%)
  48. (0.00001) RY ( 7) C  1            s(  4.93%)p 1.76(  8.68%)d17.52( 86.39%)
  49. (0.00001) RY ( 8) C  1            s(  3.23%)p 1.39(  4.47%)d28.57( 92.30%)
  50. (0.00000) RY ( 9) C  1            s(  0.26%)p16.80(  4.39%)d99.99( 95.35%)
  51. (0.00413) RY ( 1) C  2            s(  0.22%)p99.99( 96.62%)d14.54(  3.16%)
                                         0.0000  0.0109  0.0453 -0.0035  0.5904
                                        -0.0105  0.0907  0.0097  0.7805  0.0136
                                        -0.0514 -0.1682  0.0200  0.0088
  52. (0.00304) RY ( 2) C  2            s( 14.83%)p 5.02( 74.36%)d 0.73( 10.81%)
                                         0.0000 -0.0157  0.3847  0.0017  0.4963
                                         0.0098  0.5685 -0.0227 -0.4165 -0.0336
                                         0.0550  0.2008  0.1278 -0.2176
  53. (0.00146) RY ( 3) C  2            s(  4.06%)p20.82( 84.62%)d 2.79( 11.32%)
                                         0.0000 -0.0050  0.2015  0.0019 -0.5763
                                        -0.0010  0.6003 -0.0056  0.3920 -0.2125
                                        -0.1435  0.1855 -0.1087 -0.0350
  54. (0.00067) RY ( 4) C  2            s( 14.45%)p 0.74( 10.72%)d 5.18( 74.84%)
                                         0.0000  0.0050  0.3800  0.0019 -0.0265
                                         0.0108 -0.3260  0.0036  0.0082 -0.6798
                                        -0.1721 -0.0693  0.5006  0.0353
  55. (0.00056) RY ( 5) C  2            s( 26.84%)p 0.39( 10.42%)d 2.34( 62.74%)
                                         0.0000  0.0041  0.5180  0.0033 -0.1948
                                        -0.0011 -0.1921 -0.0073  0.1710  0.2656
                                         0.7070 -0.0506  0.0807 -0.2190
  56. (0.00049) RY ( 6) C  2            s( 15.07%)p 0.79( 11.94%)d 4.84( 73.00%)
                                         0.0000  0.0035  0.3882 -0.0150  0.1219
                                         0.0099 -0.3220  0.0008 -0.0216 -0.1805
                                        -0.1999  0.2068 -0.7744 -0.1224
  57. (0.00026) RY ( 7) C  2            s(  1.19%)p 2.07(  2.46%)d80.94( 96.35%)
                                         0.0000  0.0014  0.1091  0.0153 -0.1273
                                         0.0094 -0.0896  0.0058  0.0051  0.3515
                                        -0.5223 -0.2712  0.1602 -0.6841
  58. (0.00019) RY ( 8) C  2            s( 10.40%)p 0.27(  2.79%)d 8.35( 86.81%)
                                         0.0000  0.0021  0.3224  0.0054 -0.0119
                                        -0.0091 -0.1502 -0.0092  0.0708  0.4972
                                        -0.3380  0.4895  0.2507  0.4519
  59. (0.00004) RY ( 9) C  2            s( 12.99%)p 0.48(  6.18%)d 6.22( 80.83%)
  60. (0.00373) RY ( 1) C  3            s(  4.19%)p21.73( 91.11%)d 1.12(  4.70%)
                                         0.0000  0.0125  0.2044  0.0132  0.6835
                                        -0.0142 -0.6610 -0.0010 -0.0817 -0.0817
                                        -0.1190  0.1062 -0.1203 -0.0204
  61. (0.00299) RY ( 2) C  3            s( 15.83%)p 4.79( 75.87%)d 0.52(  8.30%)
                                         0.0000  0.0141  0.3976 -0.0078 -0.6173
                                        -0.0078 -0.5681  0.0038  0.2342  0.1309
                                         0.0605  0.0441  0.0625 -0.2374
  62. (0.00084) RY ( 3) C  3            s( 36.02%)p 1.40( 50.51%)d 0.37( 13.47%)
                                         0.0000  0.0070  0.6001  0.0007 -0.0888
                                         0.0055  0.1143  0.0072 -0.6957 -0.0091
                                         0.0487 -0.1211  0.1597  0.3035
  63. (0.00021) RY ( 4) C  3            s( 28.93%)p 1.97( 57.12%)d 0.48( 13.95%)
                                         0.0000 -0.0168  0.5376 -0.0040  0.2356
                                        -0.0038  0.2671 -0.0168  0.6664 -0.0930
                                         0.0357 -0.1734  0.1586  0.2726
  64. (0.00004) RY ( 5) C  3            s(  9.34%)p 1.00(  9.31%)d 8.71( 81.35%)
  65. (0.00003) RY ( 6) C  3            s(  0.67%)p 6.83(  4.60%)d99.99( 94.73%)
  66. (0.00001) RY ( 7) C  3            s(  0.99%)p 1.79(  1.77%)d98.65( 97.25%)
  67. (0.00001) RY ( 8) C  3            s(  0.17%)p 1.45(  0.25%)d99.99( 99.57%)
  68. (0.00000) RY ( 9) C  3            s(  3.93%)p 2.43(  9.54%)d22.04( 86.54%)
  69. (0.00697) RY ( 1) C  4            s( 19.69%)p 3.51( 69.07%)d 0.57( 11.25%)
                                         0.0000 -0.0034  0.4437 -0.0044  0.4860
                                         0.0257 -0.4320 -0.0046  0.5169 -0.1969
                                         0.2536  0.0432  0.0311  0.0810
  70. (0.00464) RY ( 2) C  4            s( 19.94%)p 3.52( 70.14%)d 0.50(  9.92%)
                                         0.0000 -0.0250  0.4459 -0.0206 -0.5727
                                        -0.0003 -0.5183 -0.0343 -0.3212 -0.2024
                                        -0.0322 -0.1260  0.1686 -0.1134
  71. (0.00319) RY ( 3) C  4            s(  6.17%)p12.61( 77.85%)d 2.59( 15.98%)
                                         0.0000  0.0240  0.2473 -0.0043 -0.5386
                                         0.0099  0.3783  0.0229  0.5871  0.1146
                                         0.0249  0.2841  0.2323  0.1067
  72. (0.00214) RY ( 4) C  4            s( 32.35%)p 0.90( 29.24%)d 1.19( 38.41%)
                                         0.0000  0.0069  0.5687 -0.0080  0.1166
                                        -0.0124  0.5129  0.0036 -0.1246 -0.1783
                                        -0.0192 -0.1523 -0.3850 -0.4249
  73. (0.00084) RY ( 5) C  4            s(  3.34%)p 7.84( 26.17%)d21.11( 70.49%)
                                         0.0000 -0.0097  0.1825 -0.0101  0.0765
                                        -0.0042  0.3002 -0.0017 -0.4069 -0.1061
                                         0.5919  0.0069  0.2643  0.5229
  74. (0.00040) RY ( 6) C  4            s(  1.59%)p 6.69( 10.62%)d55.32( 87.79%)
                                         0.0000 -0.0003  0.1260  0.0005  0.2221
                                        -0.0244  0.0615  0.0193 -0.2283 -0.3433
                                        -0.5108  0.6620  0.2278  0.0951
  75. (0.00029) RY ( 7) C  4            s( 14.84%)p 0.15(  2.27%)d 5.59( 82.90%)
                                         0.0000  0.0086  0.3851  0.0005  0.1332
                                         0.0127 -0.0101 -0.0091 -0.0676  0.5636
                                        -0.4714 -0.2684 -0.0274  0.4651
  76. (0.00008) RY ( 8) C  4            s(  1.20%)p 5.70(  6.86%)d76.47( 91.94%)
  77. (0.00002) RY ( 9) C  4            s(  0.98%)p 8.12(  7.98%)d92.57( 91.03%)
  78. (0.00508) RY ( 1) C  5            s( 19.55%)p 3.03( 59.29%)d 1.08( 21.17%)
                                         0.0000  0.0104  0.4420  0.0142 -0.7389
                                         0.0210 -0.1128  0.0020  0.1832  0.0453
                                        -0.1728  0.1958  0.3204 -0.1968
  79. (0.00312) RY ( 2) C  5            s(  1.05%)p80.39( 84.35%)d13.92( 14.61%)
                                         0.0000  0.0139  0.1015 -0.0183  0.0567
                                         0.0118  0.8334  0.0285  0.3801 -0.3206
                                        -0.1992  0.0149  0.0268  0.0519
  80. (0.00127) RY ( 3) C  5            s(  1.06%)p14.93( 15.83%)d78.38( 83.11%)
                                         0.0000 -0.0093  0.1026  0.0030  0.1908
                                        -0.0024 -0.1873  0.0036 -0.2946 -0.4760
                                        -0.2621  0.2263  0.4916  0.4929
  81. (0.00065) RY ( 4) C  5            s( 14.29%)p 4.61( 65.80%)d 1.39( 19.91%)
                                         0.0000  0.0091  0.3779 -0.0063 -0.0638
                                        -0.0184  0.4194  0.0113 -0.6910  0.1355
                                         0.3998  0.1428 -0.0208 -0.0089
  82. (0.00017) RY ( 5) C  5            s(  4.16%)p 8.59( 35.68%)d14.48( 60.16%)
                                         0.0000 -0.0245  0.2024 -0.0021  0.5216
                                        -0.0076 -0.0297 -0.0002  0.2896  0.3763
                                         0.0988  0.5797  0.2704 -0.2025
  83. (0.00010) RY ( 6) C  5            s( 33.32%)p 0.24(  7.84%)d 1.77( 58.84%)
  84. (0.00002) RY ( 7) C  5            s( 15.83%)p 0.60(  9.53%)d 4.71( 74.64%)
  85. (0.00001) RY ( 8) C  5            s(  7.01%)p 2.23( 15.61%)d11.03( 77.38%)
  86. (0.00001) RY ( 9) C  5            s(  3.84%)p 1.63(  6.27%)d23.39( 89.89%)
  87. (0.00261) RY ( 1) N  6            s(  1.18%)p72.93( 86.40%)d10.48( 12.41%)
                                         0.0000  0.0101  0.1084  0.0031 -0.1372
                                         0.0333 -0.9137  0.0119  0.0955  0.1189
                                        -0.0822 -0.1827 -0.2523 -0.0788
  88. (0.00190) RY ( 2) N  6            s(  9.78%)p 6.99( 68.34%)d 2.24( 21.88%)
                                         0.0000  0.0095  0.3125 -0.0117 -0.3898
                                        -0.0045  0.2198  0.0215  0.6946  0.0648
                                        -0.2488 -0.1098 -0.1074  0.3593
  89. (0.00056) RY ( 3) N  6            s( 46.56%)p 0.93( 43.50%)d 0.21(  9.94%)
                                         0.0000 -0.0084  0.6823  0.0221  0.6522
                                        -0.0095 -0.0412 -0.0082 -0.0858 -0.0829
                                        -0.0083  0.0052 -0.0784  0.2938
  90. (0.00021) RY ( 4) N  6            s(  9.25%)p 6.96( 64.33%)d 2.86( 26.43%)
                                         0.0000 -0.0202  0.3034 -0.0215 -0.4428
                                        -0.0119  0.0987 -0.0188 -0.6607  0.0975
                                        -0.4915 -0.0015 -0.0628  0.0963
  91. (0.00013) RY ( 5) N  6            s(  0.02%)p99.99(  4.85%)d99.99( 95.13%)
                                         0.0000 -0.0056  0.0119 -0.0177 -0.1360
                                        -0.0036  0.0341 -0.0063 -0.1688  0.6561
                                         0.5885 -0.0024 -0.1155  0.4014
  92. (0.00003) RY ( 6) N  6            s( 20.85%)p 0.21(  4.36%)d 3.59( 74.78%)
  93. (0.00001) RY ( 7) N  6            s(  1.25%)p 2.05(  2.56%)d77.13( 96.19%)
  94. (0.00001) RY ( 8) N  6            s( 10.18%)p 1.16( 11.83%)d 7.66( 77.98%)
  95. (0.00000) RY ( 9) N  6            s(  1.02%)p13.93( 14.23%)d82.98( 84.75%)
  96. (0.00163) RY ( 1) H  7            s( 98.00%)p 0.02(  2.00%)
                                         0.0054  0.9899 -0.0869  0.1057  0.0357
  97. (0.00016) RY ( 2) H  7            s(  0.05%)p99.99( 99.95%)
                                         0.0007  0.0220 -0.0466  0.0919 -0.9944
  98. (0.00011) RY ( 3) H  7            s(  0.05%)p99.99( 99.95%)
                                        -0.0068  0.0204 -0.6769 -0.7349 -0.0357
  99. (0.00003) RY ( 4) H  7            s(  2.00%)p49.06( 98.00%)
 100. (0.00208) RY ( 1) H  8            s( 98.82%)p 0.01(  1.18%)
                                         0.0059  0.9941 -0.0292 -0.0588  0.0865
[...]
                   0.00000   0.00000   0.00000   0.00000   0.00000   0.00000
                   0.00299   0.00084   0.00021   0.00004   0.00003   0.00001
                  --------  --------  --------  --------  --------  --------
  0 C                -4.7       0.3      -0.3      -0.0       0.1      -0.0
  1 C               -25.8     -65.9      -0.4      -7.4      -2.3      -0.6
  2 C               152.2     181.4     147.3     125.4     112.1     111.1
  3 C                 1.5       2.6      -0.5      -0.5      -0.0      -0.0
  4 C                -0.7      -1.5      -0.2       0.2       0.0       0.0
  5 N                -0.2      -0.0       0.0       0.0      -0.0       0.0
  6 H                 0.2       0.1      -0.1      -0.0       0.0      -0.0
  7 H                -0.1      -0.1      -0.0      -0.0       0.1      -0.0
  8 H                -0.3      -0.1      -0.0      -0.0      -0.0      -0.0
  9 H                -0.2       0.4       0.1       0.2      -0.1       0.0
 10 H               -15.3      -0.2     -21.6      -2.5      -0.6      -5.9
 11 H                -2.0      -9.4     -11.6     -11.8      -2.4      -2.0
 12 H                -4.6      -7.5     -12.9      -3.5      -6.8      -2.5
 14 H                -0.1       0.1       0.1      -0.0      -0.1      -0.0
 16 H                 0.2      -0.0      -0.0       0.0      -0.0      -0.0

                     66        67        68        69        70        71   
                   0.00000   0.00000   0.00000   0.00000   0.00000   0.00000
                   0.00001   0.00000   0.00697   0.00464   0.00319   0.00214
                  --------  --------  --------  --------  --------  --------
  0 C                -0.1       0.2       0.2      -5.5      -3.6       0.2
  1 C                -0.6      -2.5     -19.8      -8.2     -46.6     -48.5
  2 C               108.9     115.2      -0.6      -0.7       1.5       2.1
  3 C                 0.1      -0.1     225.4     156.7     173.0     180.9
  4 C                -0.1       0.1     -74.4      -2.4     -10.3     -27.8
  5 N                -0.0      -0.0     -26.0      -7.5      -8.8      -2.3
  6 H                -0.0      -0.0      -0.0      -0.1      -0.3      -0.1
  7 H                -0.0      -0.1      -0.1       0.2      -0.2      -0.0
  8 H                 0.0      -0.0      -0.5       0.2      -0.1       0.0
  9 H                -0.1       0.1       0.4       0.0       0.0      -0.7
 10 H                -2.9      -2.1       0.0      -0.0       0.0      -0.1
 11 H                -2.1      -3.8      -0.0      -0.0      -0.3      -0.1
 12 H                -3.1      -7.1      -0.0       0.0       0.0       0.1
 13 H                -0.0      -0.0      -3.4     -32.3      -4.4      -4.3
 14 H                 0.0       0.0       0.2       0.0      -0.4       0.5
 15 H                -0.0       0.0       0.0       0.1       0.8      -0.1
 16 H                -0.0      -0.0      -1.1      -0.3      -0.4       0.1

                     72        73        74        75        76        77   
                   0.00000   0.00000   0.00000   0.00000   0.00000   0.00000
                   0.00084   0.00040   0.00029   0.00008   0.00002   0.00508
                  --------  --------  --------  --------  --------  --------
  0 C                -0.1       0.1       0.0      -0.0       0.1      -0.2
  1 C               -11.7      -3.9     -12.9      -0.8      -1.2       2.8
  2 C                 0.1      -0.0       0.3      -0.1       0.1      -2.8
  3 C               122.8     110.3     143.0     109.7     112.4     -66.3
  4 C                -2.8      -5.3     -24.2      -4.0      -2.3     183.1
  5 N                -4.5      -0.1      -2.5      -1.6      -0.9     -10.6
  9 H                 0.2       0.3      -0.0       0.0      -0.1       0.0
 12 H                -0.0      -0.0      -0.0       0.0      -0.0      -0.1
 13 H                -4.0      -1.2      -3.3      -3.0      -8.2      -0.1
 14 H                 0.1       0.1       0.2      -0.3       0.1      -1.8
 15 H                 0.1      -0.3      -0.1       0.2       0.0      -2.7
 16 H                 0.1       0.1      -0.3      -0.1       0.0      -1.2

                     78        79        80        81        82        83   
                   0.00000   0.00000   0.00000   0.00000   0.00000   0.00000
                   0.00312   0.00127   0.00065   0.00017   0.00010   0.00002
                  --------  --------  --------  --------  --------  --------
  0 C                -0.1      -0.0      -0.4      -0.0      -0.1      -0.0
  1 C                 0.2       0.1       1.6      -0.5       0.8      -0.1
  2 C                -2.6      -0.4      -0.3      -0.2      -0.8       0.0
  3 C               -11.6      -0.7     -33.6      -4.4     -25.5      -3.7
  4 C               146.0     116.9     141.1     121.3     151.2     125.8
  5 N                -2.8      -2.4       1.3      -0.6      -7.5      -3.3
 12 H                 0.4      -0.0      -0.1      -0.0       0.0      -0.1
 13 H                 0.3       0.1       0.1       0.0      -0.2       0.0
 14 H               -19.1      -4.1      -3.6     -12.7      -8.8      -9.4
 15 H               -10.1      -9.7      -5.8      -3.1      -7.9      -9.2
 16 H                -0.5       0.3      -0.3       0.1      -1.1      -0.1

                     84        85        86        87        88        89   
                   0.00000   0.00000   0.00000   0.00000   0.00000   0.00000
                   0.00001   0.00001   0.00261   0.00190   0.00056   0.00021
                  --------  --------  --------  --------  --------  --------
  0 C                -0.0       0.0      -0.0      -0.3       0.1      -0.0
  1 C                -0.1       0.1      -0.0      -0.7       1.3      -0.4
  2 C                -0.1       0.1       0.0      -0.0      -0.2      -0.1
  3 C                -7.2      -1.3      -4.5      -4.9     -29.5      -2.6
  4 C               119.9     114.1      -2.2     -10.4      -0.3      -8.1
  5 N                -0.3      -7.0     107.9     123.2     135.7     119.0
  9 H                -0.0      -0.0      -0.1       0.0      -0.2       0.0
 13 H                 0.0       0.1      -0.1       0.2      -0.5       0.1
 14 H                -2.1      -0.8       0.1      -0.2      -0.2       0.2
 15 H               -10.0      -4.9      -0.1       0.4      -0.2      -0.0
 16 H                -0.1      -0.3      -1.1      -7.2      -6.0      -8.0

                     90        91        92        93        94        95   
                   0.00000   0.00000   0.00000   0.00000   0.00000   0.00000
                   0.00013   0.00003   0.00001   0.00001   0.00000   0.00163
                  --------  --------  --------  --------  --------  --------
  0 C                 0.0      -0.3      -0.0      -0.0      -0.0     -35.0
  1 C                -0.3      -0.2       0.0       0.1      -0.1       0.7
  2 C                 0.0      -0.0      -0.0      -0.0       0.0       0.2
  3 C                -1.6      -6.0      -1.4      -0.6      -1.5      -0.4
  4 C                -0.5      -2.6      -0.6      -8.0      -3.1      -0.1
  5 N               104.5     109.9     107.5     111.3     106.5      -0.0
  6 H                -0.0      -0.0      -0.0      -0.0      -0.0     137.6
  7 H                -0.0      -0.0      -0.0      -0.0      -0.0      -0.4
  8 H                -0.0      -0.0      -0.0      -0.0      -0.0      -0.3
  9 H                 0.0      -0.1      -0.0       0.0      -0.0      -0.3
 11 H                -0.0      -0.0      -0.0      -0.0      -0.0      -2.0
 13 H                 0.0      -0.3      -0.0      -0.0       0.1      -0.0
 14 H                -0.1      -0.0      -0.0      -0.0      -0.0      -0.0
 16 H                -1.9      -0.3      -5.4      -2.5      -1.6      -0.0

                     96        97        98        99       100       101   
                   0.00000   0.00000   0.00000   0.00000   0.00000   0.00000
                   0.00016   0.00011   0.00003   0.00208   0.00015   0.00011
                  --------  --------  --------  --------  --------  --------
  0 C                -2.9      -3.0      -8.1     -34.6      -3.1      -3.0
  1 C                -0.2      -0.2      -0.2       0.8      -0.1      -0.3
  2 C                -0.0      -0.0      -0.0      -0.3      -0.0      -0.1
  3 C                -0.0      -0.0      -0.1      -0.5      -0.0      -0.0
  5 N                -0.0      -0.0      -0.0      -0.2      -0.0      -0.0
  6 H               104.0     104.2     108.8      -0.4      -0.4      -0.4
  7 H                -0.4      -0.4      -0.1     137.1     104.2     104.3
  8 H                -0.3      -0.4      -0.1      -0.4      -0.4      -0.4
 10 H                -0.0      -0.0      -0.0      -0.8      -0.0      -0.0
 11 H                -0.0      -0.0      -0.1      -0.0      -0.0      -0.0
 16 H                -0.0      -0.0       0.0      -0.8      -0.0      -0.0

                    102       103       104       105       106       107   
                   0.00000   0.00000   0.00000   0.00000   0.00000   0.00000
                   0.00003   0.00159   0.00017   0.00011   0.00003   0.00409
                  --------  --------  --------  --------  --------  --------
  0 C                -7.9     -35.4      -2.9      -3.0      -8.0       0.5
  1 C                -0.1       1.1      -0.2      -0.2      -0.1     -30.6
  2 C                -0.0      -0.3      -0.0      -0.0      -0.1       0.3
  3 C                -0.0      -0.4      -0.0      -0.0      -0.0      -0.1
  4 C                -0.0      -0.1      -0.0       0.0      -0.0       0.1
  5 N                -0.0       0.0      -0.0      -0.0      -0.0      -0.1
  6 H                -0.1      -0.2      -0.3      -0.4      -0.1      -0.3
  7 H               108.3      -0.4      -0.4      -0.4      -0.1      -0.0
  8 H                -0.1     137.9     104.0     104.1     108.7      -0.2
  9 H                -0.0      -0.3      -0.0      -0.1      -0.0     131.5
 11 H                 0.0      -0.0      -0.0      -0.0      -0.0      -0.2
 12 H                -0.0      -0.0      -0.0      -0.0      -0.0      -0.4
 13 H                -0.0      -1.9      -0.0      -0.0      -0.1      -0.3

                    108       109       110       111       112       113   
                   0.00000   0.00000   0.00000   0.00000   0.00000   0.00000
                   0.00010   0.00009   0.00004   0.00304   0.00019   0.00012
                  --------  --------  --------  --------  --------  --------
  0 C                -0.2      -0.2      -0.0      -0.2       0.0      -0.1
  1 C                -3.0      -3.2      -8.7       0.5      -0.2      -0.2
  2 C                -0.2      -0.3      -0.0     -34.9      -3.1      -3.1
  3 C                -0.1      -0.6       0.0      -0.0      -0.0      -0.0
  4 C                -0.0      -0.0      -0.0       0.2      -0.1      -0.0
  5 N                -0.1      -0.2      -0.0      -0.2      -0.0      -0.0
  7 H                -0.1      -0.0      -0.0      -0.8      -0.0      -0.0
  9 H               104.1     104.8     108.7      -0.0      -0.0      -0.0
 10 H                -0.0      -0.0      -0.0     142.5     104.3     104.3
 11 H                -0.1      -0.0      -0.0      -0.4      -0.2      -0.4
 12 H                -0.0      -0.1       0.0      -0.4      -0.4      -0.4
 16 H                -0.0      -0.0      -0.0      -6.1       0.0      -0.0

                    114       115       116       117       118       119   
                   0.00000   0.00000   0.00000   0.00000   0.00000   0.00000
                   0.00003   0.00151   0.00017   0.00012   0.00003   0.00169
                  --------  --------  --------  --------  --------  --------
  0 C                -0.0       0.0      -0.0      -0.0      -0.0      -0.4
  1 C                -0.1       1.0      -0.2      -0.2      -0.2      -0.1
  2 C                -7.9     -35.9      -3.0      -3.2      -8.0     -35.2
  3 C                -0.0      -0.3      -0.0      -0.1      -0.1       0.2
  6 H                 0.0      -2.0      -0.0      -0.0      -0.2       0.0
  9 H                -0.0      -0.2      -0.0      -0.1      -0.0      -0.5
 10 H               108.4      -0.3      -0.4      -0.4      -0.1      -0.5
 11 H                -0.1     138.0     104.0     104.4     108.8      -0.2
 12 H                -0.1      -0.2      -0.3      -0.4      -0.1     143.1
 14 H                -0.0      -0.0      -0.0      -0.0      -0.0      -6.4
 16 H                -0.2      -0.0      -0.0      -0.0      -0.0       0.0

                    120       121       122       123       124       125   
                   0.00000   0.00000   0.00000   0.00000   0.00000   0.00000
                   0.00017   0.00012   0.00004   0.00290   0.00013   0.00008
                  --------  --------  --------  --------  --------  --------
  0 C                -0.0      -0.0      -0.1       0.3      -0.0      -0.2
  1 C                -0.1      -0.2      -0.1      -0.3      -0.2      -0.6
  2 C                -3.1      -3.0      -8.1      -0.2      -0.1      -0.0
  3 C                -0.1      -0.0      -0.1     -38.7      -4.1      -6.6
  4 C                -0.0      -0.0      -0.0       0.2      -0.2       0.4
  5 N                -0.0      -0.0      -0.0       0.2      -0.5       0.0
  8 H                -0.0      -0.0      -0.0      -2.0      -0.0       0.0
  9 H                -0.0      -0.1      -0.0      -0.4      -0.0       0.0
 10 H                -0.4      -0.4      -0.1       0.0      -0.0      -0.0
 11 H                -0.3      -0.4      -0.1      -0.0      -0.0      -0.0
 12 H               104.1     104.2     108.8      -0.0      -0.0      -0.0
 13 H                -0.0      -0.0      -0.0     141.8     105.2     107.1
 14 H                 0.0      -0.0      -0.2       0.0      -0.0      -0.0
 15 H                -0.0      -0.0      -0.0      -0.9      -0.0      -0.0

                    126       127       128       129       130       131   
                   0.00000   0.00000   0.00000   0.00000   0.00000   0.00000
                   0.00003   0.00199   0.00023   0.00011   0.00001   0.00223
                  --------  --------  --------  --------  --------  --------
  1 C                 0.2      -0.2      -0.0      -0.0       0.0       0.2
  2 C                 0.0      -0.7       0.0      -0.0      -0.0      -0.2
  3 C                -5.2       0.7      -0.2       0.0      -0.4       0.2
  4 C                -0.8     -43.0      -3.2      -5.2      -5.6     -41.6
  5 N                -0.8      -0.0      -0.1      -0.1      -0.5       0.2
 12 H                -0.0      -6.5       0.0      -0.1      -0.1       0.0
 13 H               106.7       0.0      -0.0      -0.0      -0.0      -1.0
 14 H                -0.0     150.9     103.7     106.1     106.6      -0.7
 15 H                -0.0      -0.7      -0.2      -0.7      -0.1     142.8
 16 H                -0.0      -0.4      -0.0      -0.0      -0.0      -0.0

                    132       133       134       135       136       137   
                   0.00000   0.00000   0.00000   0.00000   0.00000   0.00000
                   0.00014   0.00012   0.00002   0.00197   0.00087   0.00055
                  --------  --------  --------  --------  --------  --------
  1 C                -0.0      -0.0      -0.0      -0.6      -0.1      -0.0
  2 C                -0.0      -0.0      -0.0      -0.1      -0.0      -0.0
  3 C                -0.2       0.3      -0.4      -1.0      -0.2      -0.2
  4 C                -2.9      -6.2      -5.7      -2.8      -0.1      -0.3
  5 N                -0.1       0.0      -0.4     -10.8      -4.2      -3.0
  7 H                -0.0      -0.0      -0.0      -0.8      -0.0      -0.0
 10 H                 0.0      -0.0      -0.0      -6.0      -0.0      -0.0
 14 H                -0.2      -0.7      -0.1      -0.3      -0.0      -0.0
 15 H               103.5     106.7     106.8      -0.0      -0.0      -0.0
 16 H                -0.0      -0.0      -0.0     122.5     104.9     103.7

                    138   
                   0.00000
                   0.00003
                  --------
  3 C                -0.2
  4 C                -0.1
  5 N                -5.7
 10 H                -0.2
 16 H               106.4

Storing NBOs: 0415.nbo
                                    *** NBOs were stored ***

                                *** returned from GENNBO program ***

-------
TIMINGS
-------

Total SCF time: 0 days 0 hours 0 min 5 sec 

Total time                  ....       5.475 sec
Sum of individual times     ....       5.979 sec  (109.2%)

Fock matrix formation       ....       3.579 sec  ( 65.4%)
  Coulomb formation         ....       1.844 sec  ( 51.5% of F)
  Split-RI-J                ....       1.837 sec  ( 51.3% of F)
  XC integration            ....       1.730 sec  ( 48.3% of F)
    Basis function eval.    ....       0.587 sec  ( 33.9% of XC)
    Density eval.           ....       0.316 sec  ( 18.2% of XC)
    XC-Functional eval.     ....       0.097 sec  (  5.6% of XC)
    XC-Potential eval.      ....       0.694 sec  ( 40.1% of XC)
Diagonalization             ....       0.025 sec  (  0.5%)
Density matrix formation    ....       0.002 sec  (  0.0%)
Population analysis         ....       1.280 sec  ( 23.4%)
Initial guess               ....       0.384 sec  (  7.0%)
Orbital Transformation      ....       0.000 sec  (  0.0%)
Orbital Orthonormalization  ....       0.000 sec  (  0.0%)
DIIS solution               ....       0.007 sec  (  0.1%)
SOSCF solution              ....       0.010 sec  (  0.2%)
Grid generation             ....       0.693 sec  ( 12.7%)
           ************************************************************
           *              Shut down parallel processing               *
           ************************************************************

-------------------------   --------------------
FINAL SINGLE POINT ENERGY      -251.335751663482
-------------------------   --------------------


                            ***************************************
                            *     ORCA property calculations      *
                            ***************************************

                                    ---------------------
                                    Active property flags
                                    ---------------------
   (+) Dipole Moment


------------------------------------------------------------------------------
                       ORCA ELECTRIC PROPERTIES CALCULATION
------------------------------------------------------------------------------

Dipole Moment Calculation                       ... on
Quadrupole Moment Calculation                   ... off
Polarizability Calculation                      ... off
GBWName                                         ... 0415.gbw
Electron density file                           ... 0415.scfp.tmp

-------------
DIPOLE MOMENT
-------------
                                X             Y             Z
Electronic contribution:      2.02583      -3.23202      -0.78111
Nuclear contribution   :     -2.03633       3.94318       0.80332
                        -----------------------------------------
Total Dipole Moment    :     -0.01050       0.71116       0.02221
                        -----------------------------------------
Magnitude (a.u.)       :      0.71159
Magnitude (Debye)      :      1.80871


Timings for individual modules:

Sum of individual times         ...        6.662 sec (=   0.111 min)
GTO integral calculation        ...        0.470 sec (=   0.008 min)   7.1 %
SCF iterations                  ...        6.192 sec (=   0.103 min)  92.9 %
                             ****ORCA TERMINATED NORMALLY****
TOTAL RUN TIME: 0 days 0 hours 0 minutes 7 seconds 58 msec
