
                                 *****************
                                 * O   R   C   A *
                                 *****************

           --- An Ab Initio, DFT and Semiempirical electronic structure package ---

                  #######################################################
                  #                        -***-                        #
                  #  Department of molecular theory and spectroscopy    #
                  #              Directorship: Frank Neese              #
                  # Max Planck Institute for Chemical Energy Conversion #
                  #                  D-45470 Muelheim/Ruhr              #
                  #                       Germany                       #
                  #                                                     #
                  #                  All rights reserved                #
                  #                        -***-                        #
                  #######################################################


                         Program Version 3.0.3 - RELEASE   -


 With contributions from (in alphabetic order):
   Ute Becker             : Parallelization
   Dmytro Bykov           : SCF Hessian
   Dmitry Ganyushin       : Spin-Orbit,Spin-Spin,Magnetic field MRCI
   Andreas Hansen         : Spin unrestricted coupled pair/coupled cluster methods
   Dimitrios Liakos       : Extrapolation schemes; parallel MDCI
   Robert Izsak           : Overlap fitted RIJCOSX, COSX-SCS-MP3
   Christian Kollmar      : KDIIS, OOCD, Brueckner-CCSD(T), CCSD density
   Simone Kossmann        : Meta GGA functionals, TD-DFT gradient, OOMP2, MP2 Hessian
   Taras Petrenko         : DFT Hessian,TD-DFT gradient, ASA and ECA modules, normal mode analysis, Resonance Raman, ABS, FL, XAS/XES, NRVS
   Christoph Reimann      : Effective Core Potentials
   Michael Roemelt        : Restricted open shell CIS
   Christoph Riplinger    : Improved optimizer, TS searches, QM/MM, DLPNO-CCSD
   Barbara Sandhoefer     : DKH picture change effects
   Igor Schapiro          : Molecular dynamics
   Kantharuban Sivalingam : CASSCF convergence, NEVPT2
   Boris Wezisla          : Elementary symmetry handling
   Frank Wennmohs         : Technical directorship


 We gratefully acknowledge several colleagues who have allowed us to
 interface, adapt or use parts of their codes:
   Stefan Grimme, W. Hujo, H. Kruse, T. Risthaus : VdW corrections, initial TS optimization,
                                                   DFT functionals, gCP
   Ed Valeev                                     : LibInt (2-el integral package), F12 methods
   Garnet Chan, S. Sharma, R. Olivares           : DMRG
   Ulf Ekstrom                                   : XCFun DFT Library
   Mihaly Kallay                                 : mrcc  (arbitrary order and MRCC methods)
   Andreas Klamt, Michael Diedenhofen            : otool_cosmo (COSMO solvation model)
   Frank Weinhold                                : gennbo (NPA and NBO analysis)
   Christopher J. Cramer and Donald G. Truhlar   : smd solvation model


 Your calculation uses the libint2 library for the computation of 2-el integrals
 For citations please refer to: http://libint.valeyev.net

 This ORCA versions uses:
   CBLAS   interface :  Fast vector & matrix operations
   LAPACKE interface :  Fast linear algebra routines
   SCALAPACK package :  Parallel linear algebra routines


Your calculation utilizes the basis: Ahlrichs-VDZ
Cite in your paper:
H - Kr: A. Schaefer, H. Horn and R. Ahlrichs, J. Chem. Phys. 97, 2571 (1992).

Your calculation utilizes the basis: Ahlrichs SVPalls1+f
Cite in your paper:
Rb - Xe: A. Schaefer, C. Huber and R. Ahlrichs, J. Chem. Phys. 100, 5829 (1994).

================================================================================
                                        WARNINGS
                       Please study these warnings very carefully!
================================================================================
Now building the actual basis set


INFO   : the flag for use of LIBINT has been found!

================================================================================
                                       INPUT FILE
================================================================================
NAME = 0458.inp
|  1> ! RI PBE def2-SVP def2-SVP/J NBO PAL2
|  2> % maxcore 2000
|  3> % output
|  4>     # printlevel mini
|  5>     print[ P_Basis ] 0
|  6>     print[ P_SCFInfo ] 1
|  7>     print[ P_SCFIterInfo ] 1
|  8>     print[ P_OrbEn ] 0
|  9>     print[ P_Cartesian ] 0
| 10> end
| 11> *xyz 0 1
| 12>  C        0.9199390000    -0.1391910000    -0.0391020000 
| 13>  C        2.4076040000    -0.1635870000    -0.0420500000 
| 14>  C        3.1881690000     0.8106170000    -0.5175810000 
| 15>  C        4.6285430000     0.7689850000    -0.5118490000 
| 16>  N        5.3133090000     1.7409580000    -0.9852400000 
| 17>  N        6.6381640000     1.6691980000    -0.9639580000 
| 18>  H        0.5226380000    -0.2233530000     0.9782570000 
| 19>  H        0.5070580000    -0.9824610000    -0.6033570000 
| 20>  H        0.5354940000     0.7834740000    -0.4781640000 
| 21>  H        2.8814550000    -1.0496720000     0.3787820000 
| 22>  H        2.7455450000     1.7078830000    -0.9440620000 
| 23>  H        5.1188690000    -0.1185990000    -0.0904100000 
| 24>  H        7.1415200000     2.4459840000    -1.3407940000 
| 25>  H        7.1286920000     0.8724640000    -0.5857510000 
| 26> *
| 27> 
| 28>                          ****END OF INPUT****
================================================================================

                       ****************************
                       * Single Point Calculation *
                       ****************************

--------------------------------
INTERNAL COORDINATES (ANGSTROEM)
--------------------------------
 C      0   0   0   0.000000     0.000     0.000
 C      1   0   0   1.487868     0.000     0.000
 C      2   1   0   1.335846   124.959     0.000
 C      3   2   1   1.440987   124.166   180.003
 N      4   3   2   1.279740   120.760   180.006
 N      5   4   3   1.326968   119.158   180.003
 H      1   2   3   1.095423   111.298   239.247
 H      1   2   3   1.095426   111.298   120.727
 H      1   2   3   1.091734   111.417     0.000
 H      2   1   3   1.089395   116.582   180.001
 H      3   2   1   1.087607   120.228     0.000
 H      4   3   2   1.098106   118.113     0.000
 H      6   5   4   0.999384   117.051   180.061
 H      6   5   4   1.009180   122.276   359.963

---------------------------
INTERNAL COORDINATES (A.U.)
---------------------------
 C      0   0   0   0.000000     0.000     0.000
 C      1   0   0   2.811663     0.000     0.000
 C      2   1   0   2.524383   124.959     0.000
 C      3   2   1   2.723071   124.166   180.003
 N      4   3   2   2.418359   120.760   180.006
 N      5   4   3   2.507605   119.158   180.003
 H      1   2   3   2.070049   111.298   239.247
 H      1   2   3   2.070056   111.298   120.727
 H      1   2   3   2.063079   111.417     0.000
 H      2   1   3   2.058658   116.582   180.001
 H      3   2   1   2.055279   120.228     0.000
 H      4   3   2   2.075119   118.113     0.000
 H      6   5   4   1.888563   117.051   180.061
 H      6   5   4   1.907073   122.276   359.963



           ************************************************************
           *        Program running with 2 parallel MPI-processes     *
           *              working on a common directory               *
           ************************************************************
------------------------------------------------------------------------------
                           ORCA GTO INTEGRAL CALCULATION
                           -- RI-GTO INTEGRALS CHOSEN --
------------------------------------------------------------------------------

                         BASIS SET STATISTICS AND STARTUP INFO

Gaussian basis set:
 # of primitive gaussian shells          ...  112
 # of primitive gaussian functions       ...  200
 # of contracted shells                  ...   60
 # of contracted basis functions         ...  124
 Highest angular momentum                ...    2
 Maximum contraction depth               ...    5
Auxiliary gaussian basis set:
 # of primitive gaussian shells          ...  208
 # of primitive gaussian functions       ...  548
 # of contracted shells                  ...  130
 # of contracted aux-basis functions     ...  382
 Highest angular momentum                ...    4
 Maximum contraction depth               ...    7
Ratio of auxiliary to basis functions    ...  3.08
Integral package used                  ... LIBINT
 One Electron integrals                  ... done
 Ordering auxiliary basis shells         ... done
 Integral threshhold             Thresh  ...  1.000e-10
 Primitive cut-off               TCut    ...  1.000e-11
 Pre-screening matrix                    ... done
 Shell pair data                         ... 
 Ordering of the shell pairs             ... done (   0.000 sec) 1668 of 1830 pairs
 Determination of significant pairs      ... done (   0.000 sec)
 Creation of shell pair data             ... done (   0.000 sec)
 Storage of shell pair data              ... done (   0.000 sec)
 Shell pair data done in (   0.001 sec)
 Computing two index integrals           ... done
 Cholesky decomposition of the V-matrix  ... done


Timings:
 Total evaluation time                   ...   0.150 sec (  0.002 min)
 One electron matrix time                ...   0.015 sec (  0.000 min) = 10.1%
 Schwartz matrix evaluation time         ...   0.074 sec (  0.001 min) = 49.3%
 Two index repulsion integral time       ...   0.003 sec (  0.000 min) =  1.9%
 Cholesky decomposition of V             ...   0.002 sec (  0.000 min) =  1.6%
 Three index repulsion integral time     ...   0.000 sec (  0.000 min) =  0.0%

           ************************************************************
           *              Shut down parallel processing               *
           ************************************************************


           ************************************************************
           *        Program running with 2 parallel MPI-processes     *
           *              working on a common directory               *
           ************************************************************
-------------------------------------------------------------------------------
                                 ORCA SCF
-------------------------------------------------------------------------------

------------
SCF SETTINGS
------------
Hamiltonian:
 Density Functional     Method          .... DFT(GTOs)
 Exchange Functional    Exchange        .... PBE
   PBE kappa parameter  XKappa          ....  0.804000
 Correlation Functional Correlation     .... PBE
 LDA part of GGA corr.  LDAOpt          .... PW91-LDA
 Gradients option       PostSCFGGA      .... off
   NL short-range parameter             ....  6.400000
 RI-approximation to the Coulomb term is turned on
   Number of auxiliary basis functions  .... 382


General Settings:
 Integral files         IntName         .... 0458
 Hartree-Fock type      HFTyp           .... RHF
 Total Charge           Charge          ....    0
 Multiplicity           Mult            ....    1
 Number of Electrons    NEL             ....   46
 Basis Dimension        Dim             ....  124
 Nuclear Repulsion      ENuc            ....    213.7064650486 Eh

Convergence Acceleration:
 DIIS                   CNVDIIS         .... on
   Start iteration      DIISMaxIt       ....    12
   Startup error        DIISStart       ....  0.200000
   # of expansion vecs  DIISMaxEq       ....     5
   Bias factor          DIISBfac        ....   1.050
   Max. coefficient     DIISMaxC        ....  10.000
 Newton-Raphson         CNVNR           .... off
 SOSCF                  CNVSOSCF        .... on
   Start iteration      SOSCFMaxIt      ....   150
   Startup grad/error   SOSCFStart      ....  0.003300
 Level Shifting         CNVShift        .... on
   Level shift para.    LevelShift      ....    0.2500
   Turn off err/grad.   ShiftErr        ....    0.0010
 Zerner damping         CNVZerner       .... off
 Static damping         CNVDamp         .... on
   Fraction old density DampFac         ....    0.7000
   Max. Damping (<1)    DampMax         ....    0.9800
   Min. Damping (>=0)   DampMin         ....    0.0000
   Turn off err/grad.   DampErr         ....    0.1000
 Fernandez-Rico         CNVRico         .... off

SCF Procedure:
 Maximum # iterations   MaxIter         ....   125
 SCF integral mode      SCFMode         .... Direct
   Integral package                     .... LIBINT
 Reset frequeny         DirectResetFreq ....    20
 Integral Threshold     Thresh          ....  1.000e-10 Eh
 Primitive CutOff       TCut            ....  1.000e-11 Eh

Convergence Tolerance:
 Convergence Check Mode ConvCheckMode   .... Total+1el-Energy
 Energy Change          TolE            ....  1.000e-06 Eh
 1-El. energy change                    ....  1.000e-03 Eh
 Orbital Gradient       TolG            ....  5.000e-05
 Orbital Rotation angle TolX            ....  5.000e-05
 DIIS Error             TolErr          ....  1.000e-06


Diagonalization of the overlap matrix:
Smallest eigenvalue                        ... 1.355e-03
Time for diagonalization                   ...    0.009 sec
Threshold for overlap eigenvalues          ... 1.000e-08
Number of eigenvalues below threshold      ... 0
Time for construction of square roots      ...    0.003 sec
Total time needed                          ...    0.012 sec

-------------------
DFT GRID GENERATION
-------------------

General Integration Accuracy     IntAcc      ...  4.340
Radial Grid Type                 RadialGrid  ... Gauss-Chebyshev
Angular Grid (max. acc.)         AngularGrid ... Lebedev-110
Angular grid pruning method      GridPruning ... 3 (G Style)
Weight generation scheme         WeightScheme... Becke
Basis function cutoff            BFCut       ...    1.0000e-10
Integration weight cutoff        WCut        ...    1.0000e-14
Grids for H and He will be reduced by one unit

# of grid points (after initial pruning)     ...  16380 (   0.0 sec)
# of grid points (after weights+screening)   ...  15489 (   0.0 sec)
nearest neighbour list constructed           ...    0.0 sec
Grid point re-assignment to atoms done       ...    0.0 sec
Grid point division into batches done        ...    0.0 sec
Reduced shell lists constructed in    0.1 sec

Total number of grid points                  ...    15489
Total number of batches                      ...      249
Average number of points per batch           ...       62
Average number of grid points per atom       ...     1106
Average number of shells per batch           ...    43.31 (72.18%)
Average number of basis functions per batch  ...    87.37 (70.46%)
Average number of large shells per batch     ...    35.13 (81.11%)
Average number of large basis fcns per batch ...    70.84 (81.08%)
Maximum spatial batch extension              ...  19.81, 19.53, 18.54 au
Average spatial batch extension              ...   1.43,  1.58,  1.82 au

Time for grid setup =    0.118 sec

------------------------------
INITIAL GUESS: MODEL POTENTIAL
------------------------------
Loading Hartree-Fock densities                     ... done
Calculating cut-offs                               ... done
Setting up the integral package                    ... done
Initializing the effective Hamiltonian             ... done
Starting the Coulomb interaction                   ... done (   0.0 sec)
Reading the grid                                   ... done
Mapping shells                                     ... done
Starting the XC term evaluation                    ... done (   0.1 sec)
  promolecular density results
     # of electrons  =     45.999032157
     EX              =    -35.874998376
     EC              =     -1.495631430
     EX+EC           =    -37.370629806
Transforming the Hamiltonian                       ... done (   0.0 sec)
Diagonalizing the Hamiltonian                      ... done (   0.0 sec)
Back transforming the eigenvectors                 ... done (   0.0 sec)
Now organizing SCF variables                       ... done
                      ------------------
                      INITIAL GUESS DONE (   0.3 sec)
                      ------------------
--------------
SCF ITERATIONS
--------------
ITER       Energy         Delta-E        Max-DP      RMS-DP      [F,P]     Damp
               ***  Starting incremental Fock matrix formation  ***
  0   -266.0008608341   0.000000000000 0.07042601  0.00273837  0.1677524 0.7000
  1   -266.0746248210  -0.073763986895 0.04045287  0.00204075  0.0774157 0.7000
                               ***Turning on DIIS***
  2   -266.1027419038  -0.028117082787 0.06222521  0.00338434  0.0237957 0.0000
  3   -266.1402945008  -0.037552596984 0.03191905  0.00139231  0.0481229 0.0000
  4   -266.1535370293  -0.013242528498 0.01030890  0.00047861  0.0088050 0.0000
  5   -266.1542711586  -0.000734129247 0.00401422  0.00018561  0.0044725 0.0000
                      *** Initiating the SOSCF procedure ***
                           *** Shutting down DIIS ***
                      *** Re-Reading the Fockian *** 
                      *** Removing any level shift *** 
ITER      Energy       Delta-E        Grad      Rot      Max-DP    RMS-DP
  6   -266.15436152  -0.0000903598  0.000353  0.000353  0.002043  0.000098
               *** Restarting incremental Fock matrix formation ***
  7   -266.15436596  -0.0000044409  0.000197  0.000646  0.000948  0.000034
  8   -266.15436376   0.0000021980  0.000329  0.000545  0.000716  0.000023
  9   -266.15436690  -0.0000031372  0.000089  0.000582  0.000361  0.000014
                 **** Energy Check signals convergence ****
              ***Rediagonalizing the Fockian in SOSCF/NRSCF***

               *****************************************************
               *                     SUCCESS                       *
               *           SCF CONVERGED AFTER  10 CYCLES          *
               *****************************************************

Setting up the final grid:

General Integration Accuracy     IntAcc      ...  4.670
Radial Grid Type                 RadialGrid  ... Gauss-Chebyshev
Angular Grid (max. acc.)         AngularGrid ... Lebedev-302
Angular grid pruning method      GridPruning ... 3 (G Style)
Weight generation scheme         WeightScheme... Becke
Basis function cutoff            BFCut       ...    1.0000e-10
Integration weight cutoff        WCut        ...    1.0000e-14
Grids for H and He will be reduced by one unit

# of grid points (after initial pruning)     ...  64424 (   0.0 sec)
# of grid points (after weights+screening)   ...  60214 (   0.1 sec)
nearest neighbour list constructed           ...    0.0 sec
Grid point re-assignment to atoms done       ...    0.0 sec
Grid point division into batches done        ...    0.2 sec
Reduced shell lists constructed in    0.4 sec

Total number of grid points                  ...    60214
Total number of batches                      ...      946
Average number of points per batch           ...       63
Average number of grid points per atom       ...     4301
Average number of shells per batch           ...    40.24 (67.06%)
Average number of basis functions per batch  ...    80.67 (65.06%)
Average number of large shells per batch     ...    32.11 (79.79%)
Average number of large basis fcns per batch ...    64.47 (79.91%)
Maximum spatial batch extension              ...  19.00, 16.42, 17.72 au
Average spatial batch extension              ...   0.96,  1.06,  1.12 au

Final grid set up in    0.4 sec
Final integration                            ... done (   0.3 sec)
Change in XC energy                          ...     0.001075119
Integrated number of electrons               ...    45.999949829
Previous integrated no of electrons          ...    46.004334084

----------------
TOTAL SCF ENERGY
----------------

Total Energy       :         -266.15329118 Eh           -7242.39925 eV

Components:
Nuclear Repulsion  :          213.70646505 Eh            5815.24856 eV
Electronic Energy  :         -479.85975623 Eh          -13057.64781 eV

One Electron Energy:         -782.04258910 Eh          -21280.46073 eV
Two Electron Energy:          302.18283287 Eh            8222.81292 eV

Virial components:
Potential Energy   :         -529.80667583 Eh          -14416.77258 eV
Kinetic Energy     :          263.65338465 Eh            7174.37333 eV
Virial Ratio       :            2.00948179


DFT components:
N(Alpha)           :       22.999974914455 electrons
N(Beta)            :       22.999974914455 electrons
N(Total)           :       45.999949828910 electrons
E(X)               :      -36.606403681434 Eh       
E(C)               :       -1.516271233059 Eh       
E(XC)              :      -38.122674914493 Eh       

---------------
SCF CONVERGENCE
---------------

  Last Energy change         ...    5.9724e-07  Tolerance :   1.0000e-06
  Last MAX-Density change    ...    3.4722e-04  Tolerance :   1.0000e-05
  Last RMS-Density change    ...    1.1333e-05  Tolerance :   1.0000e-06
  Last Orbital Gradient      ...    2.5955e-04  Tolerance :   5.0000e-05
  Last Orbital Rotation      ...    5.0194e-04  Tolerance :   5.0000e-05

             **** THE GBW FILE WAS UPDATED (0458.gbw) ****
             **** DENSITY FILE WAS UPDATED (0458.scfp.tmp) ****
             **** ENERGY FILE WAS UPDATED (0458.en.tmp) ****

                    ********************************
                    * MULLIKEN POPULATION ANALYSIS *
                    ********************************

-----------------------
MULLIKEN ATOMIC CHARGES
-----------------------
   0 C :    0.046668
   1 C :   -0.124590
   2 C :    0.043941
   3 C :   -0.052998
   4 N :   -0.082728
   5 N :   -0.055353
   6 H :    0.028387
   7 H :    0.030224
   8 H :    0.017392
   9 H :   -0.012592
  10 H :   -0.015191
  11 H :   -0.042543
  12 H :    0.124137
  13 H :    0.095247
Sum of atomic charges:   -0.0000000

--------------------------------
MULLIKEN REDUCED ORBITAL CHARGES
--------------------------------
  0 C s       :     2.944990  s :     2.944990
      pz      :     1.007003  p :     2.982094
      px      :     0.970335
      py      :     1.004755
      dz2     :     0.004597  d :     0.026248
      dxz     :     0.006281
      dyz     :     0.003865
      dx2y2   :     0.005699
      dxy     :     0.005805
  1 C s       :     3.178303  s :     3.178303
      pz      :     1.007871  p :     2.913066
      px      :     0.950878
      py      :     0.954317
      dz2     :     0.003012  d :     0.033220
      dxz     :     0.006834
      dyz     :     0.003628
      dx2y2   :     0.009366
      dxy     :     0.010380
  2 C s       :     3.152809  s :     3.152809
      pz      :     0.973405  p :     2.770415
      px      :     0.894393
      py      :     0.902617
      dz2     :     0.003272  d :     0.032836
      dxz     :     0.006995
      dyz     :     0.004010
      dx2y2   :     0.010149
      dxy     :     0.008410
  3 C s       :     3.140766  s :     3.140766
      pz      :     1.018730  p :     2.862268
      px      :     0.937646
      py      :     0.905891
      dz2     :     0.004889  d :     0.049965
      dxz     :     0.008827
      dyz     :     0.006882
      dx2y2   :     0.015256
      dxy     :     0.014111
  4 N s       :     3.561938  s :     3.561938
      pz      :     1.175530  p :     3.480121
      px      :     0.937192
      py      :     1.367399
      dz2     :     0.005425  d :     0.040668
      dxz     :     0.010056
      dyz     :     0.005080
      dx2y2   :     0.011587
      dxy     :     0.008520
  5 N s       :     3.272814  s :     3.272814
      pz      :     1.605689  p :     3.756880
      px      :     0.984023
      py      :     1.167168
      dz2     :     0.001818  d :     0.025659
      dxz     :     0.006082
      dyz     :     0.001059
      dx2y2   :     0.005663
      dxy     :     0.011037
  6 H s       :     0.947422  s :     0.947422
      pz      :     0.012569  p :     0.024191
      px      :     0.005785
      py      :     0.005838
  7 H s       :     0.945617  s :     0.945617
      pz      :     0.008081  p :     0.024159
      px      :     0.005877
      py      :     0.010201
  8 H s       :     0.959044  s :     0.959044
      pz      :     0.006753  p :     0.023563
      px      :     0.005502
      py      :     0.011309
  9 H s       :     0.989548  s :     0.989548
      pz      :     0.006560  p :     0.023044
      px      :     0.005537
      py      :     0.010947
 10 H s       :     0.991940  s :     0.991940
      pz      :     0.006357  p :     0.023252
      px      :     0.005520
      py      :     0.011375
 11 H s       :     1.021066  s :     1.021066
      pz      :     0.006186  p :     0.021478
      px      :     0.004956
      py      :     0.010336
 12 H s       :     0.832237  s :     0.832237
      pz      :     0.015247  p :     0.043626
      px      :     0.009491
      py      :     0.018888
 13 H s       :     0.861701  s :     0.861701
      pz      :     0.014565  p :     0.043052
      px      :     0.009696
      py      :     0.018791


                     *******************************
                     * LOEWDIN POPULATION ANALYSIS *
                     *******************************

----------------------
LOEWDIN ATOMIC CHARGES
----------------------
   0 C :   -0.064927
   1 C :   -0.053168
   2 C :   -0.053870
   3 C :   -0.070169
   4 N :   -0.036261
   5 N :    0.035378
   6 H :    0.034652
   7 H :    0.035114
   8 H :    0.030535
   9 H :    0.018375
  10 H :    0.028710
  11 H :   -0.008741
  12 H :    0.062977
  13 H :    0.041396

-------------------------------
LOEWDIN REDUCED ORBITAL CHARGES
-------------------------------
  0 C s       :     2.831293  s :     2.831293
      pz      :     1.064169  p :     3.161188
      px      :     1.030805
      py      :     1.066214
      dz2     :     0.013684  d :     0.072447
      dxz     :     0.015467
      dyz     :     0.011248
      dx2y2   :     0.018036
      dxy     :     0.014013
  1 C s       :     2.870222  s :     2.870222
      pz      :     1.006942  p :     3.095750
      px      :     1.033552
      py      :     1.055257
      dz2     :     0.006993  d :     0.087196
      dxz     :     0.014709
      dyz     :     0.009694
      dx2y2   :     0.027877
      dxy     :     0.027922
  2 C s       :     2.869929  s :     2.869929
      pz      :     0.998244  p :     3.091602
      px      :     1.042025
      py      :     1.051333
      dz2     :     0.008051  d :     0.092340
      dxz     :     0.017136
      dyz     :     0.010583
      dx2y2   :     0.030828
      dxy     :     0.025742
  3 C s       :     2.867285  s :     2.867285
      pz      :     1.028702  p :     3.072170
      px      :     1.031629
      py      :     1.011839
      dz2     :     0.010381  d :     0.130714
      dxz     :     0.020009
      dyz     :     0.017746
      dx2y2   :     0.044046
      dxy     :     0.038532
  4 N s       :     3.226854  s :     3.226854
      pz      :     1.188485  p :     3.723441
      px      :     1.085520
      py      :     1.449436
      dz2     :     0.010270  d :     0.085966
      dxz     :     0.021515
      dyz     :     0.008442
      dx2y2   :     0.027610
      dxy     :     0.018129
  5 N s       :     3.020330  s :     3.020330
      pz      :     1.565909  p :     3.879448
      px      :     1.069311
      py      :     1.244228
      dz2     :     0.003669  d :     0.064844
      dxz     :     0.012859
      dyz     :     0.002620
      dx2y2   :     0.016967
      dxy     :     0.028730
  6 H s       :     0.899119  s :     0.899119
      pz      :     0.036237  p :     0.066229
      px      :     0.016799
      py      :     0.013193
  7 H s       :     0.898682  s :     0.898682
      pz      :     0.020408  p :     0.066205
      px      :     0.017061
      py      :     0.028736
  8 H s       :     0.903576  s :     0.903576
      pz      :     0.017260  p :     0.065889
      px      :     0.016072
      py      :     0.032558
  9 H s       :     0.912067  s :     0.912067
      pz      :     0.019674  p :     0.069557
      px      :     0.018174
      py      :     0.031710
 10 H s       :     0.902895  s :     0.902895
      pz      :     0.018568  p :     0.068395
      px      :     0.016446
      py      :     0.033381
 11 H s       :     0.939409  s :     0.939409
      pz      :     0.019497  p :     0.069333
      px      :     0.015939
      py      :     0.033897
 12 H s       :     0.810842  s :     0.810842
      pz      :     0.047187  p :     0.126182
      px      :     0.025944
      py      :     0.053051
 13 H s       :     0.831191  s :     0.831191
      pz      :     0.044830  p :     0.127413
      px      :     0.028935
      py      :     0.053647


                      *****************************
                      * MAYER POPULATION ANALYSIS *
                      *****************************

  NA   - Mulliken gross atomic population
  ZA   - Total nuclear charge
  QA   - Mulliken gross atomic charge
  VA   - Mayer's total valence
  BVA  - Mayer's bonded valence
  FA   - Mayer's free valence

  ATOM       NA         ZA         QA         VA         BVA        FA
  0 C      5.9533     6.0000     0.0467     3.9311     3.9311    -0.0000
  1 C      6.1246     6.0000    -0.1246     4.0058     4.0058    -0.0000
  2 C      5.9561     6.0000     0.0439     3.8956     3.8956    -0.0000
  3 C      6.0530     6.0000    -0.0530     3.9859     3.9859    -0.0000
  4 N      7.0827     7.0000    -0.0827     3.0827     3.0827     0.0000
  5 N      7.0554     7.0000    -0.0554     3.2663     3.2663     0.0000
  6 H      0.9716     1.0000     0.0284     0.9833     0.9833     0.0000
  7 H      0.9698     1.0000     0.0302     0.9839     0.9839    -0.0000
  8 H      0.9826     1.0000     0.0174     0.9976     0.9976     0.0000
  9 H      1.0126     1.0000    -0.0126     0.9888     0.9888     0.0000
 10 H      1.0152     1.0000    -0.0152     1.0100     1.0100    -0.0000
 11 H      1.0425     1.0000    -0.0425     0.9983     0.9983    -0.0000
 12 H      0.8759     1.0000     0.1241     0.9977     0.9977     0.0000
 13 H      0.9048     1.0000     0.0952     1.0175     1.0175    -0.0000

  Mayer bond orders larger than 0.1
B(  0-C ,  1-C ) :   1.0877 B(  0-C ,  6-H ) :   0.9460 B(  0-C ,  7-H ) :   0.9461 
B(  0-C ,  8-H ) :   0.9608 B(  1-C ,  2-C ) :   1.7729 B(  1-C ,  9-H ) :   0.9542 
B(  2-C ,  3-C ) :   1.1444 B(  2-C , 10-H ) :   0.9584 B(  3-C ,  4-N ) :   1.7432 
B(  3-C ,  5-N ) :   0.1334 B(  3-C , 11-H ) :   0.9367 B(  4-N ,  5-N ) :   1.1496 
B(  5-N , 12-H ) :   0.9621 B(  5-N , 13-H ) :   0.9364 


 *********************************** NBO 6.0 ***********************************
             N A T U R A L   A T O M I C   O R B I T A L   A N D
          N A T U R A L   B O N D   O R B I T A L   A N A L Y S I S
 ***************************** Kiya KiyaLu (100703) ****************************
  (c) Copyright 1996-2015 Board of Regents of the University of Wisconsin System
      on behalf of the Theoretical Chemistry Institute.  All rights reserved.

          Cite this program as:

          NBO 6.0.  E. D. Glendening, J. K. Badenhoop, A. E. Reed,
          J. E. Carpenter, J. A. Bohmann, C. M. Morales, C. R. Landis,
          and F. Weinhold (Theoretical Chemistry Institute, University
          of Wisconsin, Madison, WI, 2013); http://nbo6.chem.wisc.edu/

       /NPA    / : Natural Population Analysis
       /NBO    / : Natural Bond Orbital Analysis
       /AONBO  / : Write the AO to NBO transformation to lfn77
       /FILE   / : Set to 0458

 Filename set to 0458

 Job title:  *** NBO job generated by orca_scf

 Warning: MOs are non-orthogonal; program will continue

 Warning: -2019.17775 electrons reside outside the linearly independent MO space


 NATURAL POPULATIONS:  Natural atomic orbital occupancies

  NAO Atom No lang   Type(AO)    Occupancy      Energy
 -------------------------------------------------------
   1    C  1  s      Cor( 1s)     1.99917      -9.76869
   2    C  1  s      Val( 2s)     1.08943      -0.20571
   3    C  1  s      Ryd( 3s)     0.00021       0.82414
   4    C  1  px     Val( 2p)     1.10866      -0.05798
   5    C  1  px     Ryd( 3p)     0.00077       0.47403
   6    C  1  py     Val( 2p)     1.23546      -0.06049
   7    C  1  py     Ryd( 3p)     0.00231       0.58239
   8    C  1  pz     Val( 2p)     1.22798      -0.06137
   9    C  1  pz     Ryd( 3p)     0.00116       0.55678
  10    C  1  dxy    Ryd( 3d)     0.00047       2.16498
  11    C  1  dxz    Ryd( 3d)     0.00056       2.13880
  12    C  1  dyz    Ryd( 3d)     0.00040       2.24179
  13    C  1  dx2y2  Ryd( 3d)     0.00052       2.26873
  14    C  1  dz2    Ryd( 3d)     0.00044       2.25533

  15    C  2  s      Cor( 1s)     1.99891      -9.75667
  16    C  2  s      Val( 2s)     0.94575      -0.12787
  17    C  2  s      Ryd( 3s)     0.00126       0.54327
  18    C  2  px     Val( 2p)     1.06691      -0.02665
  19    C  2  px     Ryd( 3p)     0.00424       0.77071
  20    C  2  py     Val( 2p)     1.13763      -0.03494
  21    C  2  py     Ryd( 3p)     0.00255       0.72472
  22    C  2  pz     Val( 2p)     1.04509      -0.07918
  23    C  2  pz     Ryd( 3p)     0.00241       0.57883
  24    C  2  dxy    Ryd( 3d)     0.00081       2.30274
  25    C  2  dxz    Ryd( 3d)     0.00058       1.97437
  26    C  2  dyz    Ryd( 3d)     0.00047       2.10669
  27    C  2  dx2y2  Ryd( 3d)     0.00062       2.28146
  28    C  2  dz2    Ryd( 3d)     0.00045       2.01807

  29    C  3  s      Cor( 1s)     1.99883      -9.74938
  30    C  3  s      Val( 2s)     0.95386      -0.11636
  31    C  3  s      Ryd( 3s)     0.00219       0.54061
  32    C  3  px     Val( 2p)     1.08847      -0.02902
  33    C  3  px     Ryd( 3p)     0.00470       0.72410
  34    C  3  py     Val( 2p)     1.15862      -0.04085
  35    C  3  py     Ryd( 3p)     0.00450       0.83409
  36    C  3  pz     Val( 2p)     1.05223      -0.07843
  37    C  3  pz     Ryd( 3p)     0.00170       0.61027
  38    C  3  dxy    Ryd( 3d)     0.00063       2.31946
  39    C  3  dxz    Ryd( 3d)     0.00063       1.96898
  40    C  3  dyz    Ryd( 3d)     0.00053       2.10759
  41    C  3  dx2y2  Ryd( 3d)     0.00071       2.31706
  42    C  3  dz2    Ryd( 3d)     0.00051       2.03007

  43    C  4  s      Cor( 1s)     1.99908      -9.78075
  44    C  4  s      Val( 2s)     0.90140      -0.11653
  45    C  4  s      Ryd( 3s)     0.00594       0.44421
  46    C  4  px     Val( 2p)     1.03705      -0.02484
  47    C  4  px     Ryd( 3p)     0.00523       0.68698
  48    C  4  py     Val( 2p)     1.02748      -0.02487
  49    C  4  py     Ryd( 3p)     0.00480       0.74352
  50    C  4  pz     Val( 2p)     1.03746      -0.08372
  51    C  4  pz     Ryd( 3p)     0.00261       0.56297
  52    C  4  dxy    Ryd( 3d)     0.00111       2.32822
  53    C  4  dxz    Ryd( 3d)     0.00086       1.97408
  54    C  4  dyz    Ryd( 3d)     0.00082       2.11114
  55    C  4  dx2y2  Ryd( 3d)     0.00131       2.32995
  56    C  4  dz2    Ryd( 3d)     0.00071       2.03123

  57    N  5  s      Cor( 1s)     1.99921     -13.84345
  58    N  5  s      Val( 2s)     1.33760      -0.43648
  59    N  5  s      Ryd( 3s)     0.00479       1.03480
  60    N  5  px     Val( 2p)     1.10843      -0.13432
  61    N  5  px     Ryd( 3p)     0.00575       1.06584
  62    N  5  py     Val( 2p)     1.53947      -0.18448
  63    N  5  py     Ryd( 3p)     0.00560       0.85012
  64    N  5  pz     Val( 2p)     1.24184      -0.17498
  65    N  5  pz     Ryd( 3p)     0.00189       0.80422
  66    N  5  dxy    Ryd( 3d)     0.00164       2.54523
  67    N  5  dxz    Ryd( 3d)     0.00139       2.28932
  68    N  5  dyz    Ryd( 3d)     0.00174       2.36389
  69    N  5  dx2y2  Ryd( 3d)     0.00200       2.61262
  70    N  5  dz2    Ryd( 3d)     0.00148       2.36720

  71    N  6  s      Cor( 1s)     1.99946     -13.89749
  72    N  6  s      Val( 2s)     1.27039      -0.47671
  73    N  6  s      Ryd( 3s)     0.00098       0.80519
  74    N  6  px     Val( 2p)     1.15141      -0.18315
  75    N  6  px     Ryd( 3p)     0.00287       0.72993
  76    N  6  py     Val( 2p)     1.45175      -0.19929
  77    N  6  py     Ryd( 3p)     0.00268       1.01934
  78    N  6  pz     Val( 2p)     1.69062      -0.21348
  79    N  6  pz     Ryd( 3p)     0.00463       0.77199
  80    N  6  dxy    Ryd( 3d)     0.00132       2.70032
  81    N  6  dxz    Ryd( 3d)     0.00080       2.36637
  82    N  6  dyz    Ryd( 3d)     0.00044       2.46272
  83    N  6  dx2y2  Ryd( 3d)     0.00075       2.66885
  84    N  6  dz2    Ryd( 3d)     0.00046       2.41893

  85    H  7  s      Val( 1s)     0.76726       0.07005
  86    H  7  s      Ryd( 2s)     0.00192       0.33462
  87    H  7  px     Ryd( 2p)     0.00023       1.75352
  88    H  7  py     Ryd( 2p)     0.00018       1.73573
  89    H  7  pz     Ryd( 2p)     0.00073       2.21187

  90    H  8  s      Val( 1s)     0.76699       0.06997
  91    H  8  s      Ryd( 2s)     0.00185       0.33556
  92    H  8  px     Ryd( 2p)     0.00023       1.76660
  93    H  8  py     Ryd( 2p)     0.00052       2.06590
  94    H  8  pz     Ryd( 2p)     0.00036       1.90187

  95    H  9  s      Val( 1s)     0.77396       0.07364
  96    H  9  s      Ryd( 2s)     0.00178       0.34970
  97    H  9  px     Ryd( 2p)     0.00020       1.76547
  98    H  9  py     Ryd( 2p)     0.00060       2.13687
  99    H  9  pz     Ryd( 2p)     0.00025       1.79498

 100    H 10  s      Val( 1s)     0.79401       0.07675
 101    H 10  s      Ryd( 2s)     0.00292       0.33829
 102    H 10  px     Ryd( 2p)     0.00022       1.96365
 103    H 10  py     Ryd( 2p)     0.00065       2.12392
 104    H 10  pz     Ryd( 2p)     0.00031       1.72859

 105    H 11  s      Val( 1s)     0.77253       0.08611
 106    H 11  s      Ryd( 2s)     0.00358       0.35000
 107    H 11  px     Ryd( 2p)     0.00020       1.97289
 108    H 11  py     Ryd( 2p)     0.00066       2.14654
 109    H 11  pz     Ryd( 2p)     0.00029       1.73918

 110    H 12  s      Val( 1s)     0.83638       0.04146
 111    H 12  s      Ryd( 2s)     0.00545       0.34385
 112    H 12  px     Ryd( 2p)     0.00020       1.96383
 113    H 12  py     Ryd( 2p)     0.00060       2.12077
 114    H 12  pz     Ryd( 2p)     0.00028       1.71901

 115    H 13  s      Val( 1s)     0.60962       0.08252
 116    H 13  s      Ryd( 2s)     0.00133       0.31763
 117    H 13  px     Ryd( 2p)     0.00038       1.97288
 118    H 13  py     Ryd( 2p)     0.00096       2.11001
 119    H 13  pz     Ryd( 2p)     0.00077       1.71693

 120    H 14  s      Val( 1s)     0.64314       0.05667
 121    H 14  s      Ryd( 2s)     0.00580       0.34022
 122    H 14  px     Ryd( 2p)     0.00040       1.97428
 123    H 14  py     Ryd( 2p)     0.00092       2.12069
 124    H 14  pz     Ryd( 2p)     0.00074       1.72068

   1 low occupancy (<1.9990e) core orbital  found on  C  2
   1 low occupancy (<1.9990e) core orbital  found on  C  3


 Summary of Natural Population Analysis:

                                     Natural Population
             Natural    ---------------------------------------------
  Atom No    Charge        Core      Valence    Rydberg      Total
 --------------------------------------------------------------------
    C  1   -0.66755      1.99917     4.66154    0.00685     6.66755
    C  2   -0.20768      1.99891     4.19539    0.01338     6.20768
    C  3   -0.26812      1.99883     4.25319    0.01609     6.26812
    C  4   -0.02586      1.99908     4.00339    0.02338     6.02586
    N  5   -0.25283      1.99921     5.22733    0.02629     7.25283
    N  6   -0.57858      1.99946     5.56417    0.01494     7.57858
    H  7    0.22969      0.00000     0.76726    0.00306     0.77031
    H  8    0.23005      0.00000     0.76699    0.00296     0.76995
    H  9    0.22321      0.00000     0.77396    0.00283     0.77679
    H 10    0.20190      0.00000     0.79401    0.00409     0.79810
    H 11    0.22274      0.00000     0.77253    0.00473     0.77726
    H 12    0.15708      0.00000     0.83638    0.00654     0.84292
    H 13    0.38694      0.00000     0.60962    0.00344     0.61306
    H 14    0.34901      0.00000     0.64314    0.00785     0.65099
 ====================================================================
 * Total *  0.00000     11.99466    33.86890    0.13644    46.00000

                                 Natural Population
 ---------------------------------------------------------
   Core                      11.99466 ( 99.9555% of   12)
   Valence                   33.86890 ( 99.6144% of   34)
   Natural Minimal Basis     45.86356 ( 99.7034% of   46)
   Natural Rydberg Basis      0.13644 (  0.2966% of   46)
 ---------------------------------------------------------

    Atom No         Natural Electron Configuration
 ----------------------------------------------------------------------------
      C  1      [core]2s( 1.09)2p( 3.57)
      C  2      [core]2s( 0.95)2p( 3.25)3p( 0.01)
      C  3      [core]2s( 0.95)2p( 3.30)3p( 0.01)
      C  4      [core]2s( 0.90)2p( 3.10)3s( 0.01)3p( 0.01)
      N  5      [core]2s( 1.34)2p( 3.89)3p( 0.01)3d( 0.01)
      N  6      [core]2s( 1.27)2p( 4.29)3p( 0.01)
      H  7            1s( 0.77)
      H  8            1s( 0.77)
      H  9            1s( 0.77)
      H 10            1s( 0.79)
      H 11            1s( 0.77)
      H 12            1s( 0.84)2s( 0.01)
      H 13            1s( 0.61)
      H 14            1s( 0.64)2s( 0.01)


 NATURAL BOND ORBITAL ANALYSIS:

                            Occupancies       Lewis Structure    Low   High
         Max    Occ     -------------------  -----------------   occ   occ
  Cycle  Ctr   Thresh    Lewis   non-Lewis     CR  BD  nC  LP    (L)   (NL)
 ============================================================================
    1     2     1.90    42.52965   3.47035      6  12   0   5     4      4
    2     2     1.89    43.40299   2.59701      6  13   0   4     3      4
    3     2     1.84    43.40299   2.59701      6  13   0   4     3      4
    4     2     1.82    43.40299   2.59701      6  13   0   4     3      4
    5     2     1.76    45.24197   0.75803      6  15   0   2     0      2
 ----------------------------------------------------------------------------

 Structure accepted: No low occupancy Lewis orbitals

 -------------------------------------------------------
   Core                     11.99466 ( 99.956% of  12)
   Valence Lewis            33.24731 ( 97.786% of  34)
  ==================      =============================
   Total Lewis              45.24197 ( 98.352% of  46)
  -----------------------------------------------------
   Valence non-Lewis         0.66692 (  1.450% of  46)
   Rydberg non-Lewis         0.09111 (  0.198% of  46)
  ==================      =============================
   Total non-Lewis           0.75803 (  1.648% of  46)
 -------------------------------------------------------


     (Occupancy)   Bond orbital / Coefficients / Hybrids
 ------------------ Lewis ------------------------------------------------------
   1. (1.99917) CR ( 1) C  1            s(100.00%)
                                         1.0000  0.0000  0.0000  0.0000  0.0000
                                         0.0000  0.0000  0.0000  0.0000  0.0000
                                         0.0000  0.0000  0.0000  0.0000
   2. (1.99891) CR ( 1) C  2            s(100.00%)
                                         1.0000  0.0000  0.0000  0.0000  0.0000
                                         0.0000  0.0000  0.0000  0.0000  0.0000
                                         0.0000  0.0000  0.0000  0.0000
   3. (1.99883) CR ( 1) C  3            s(100.00%)
                                         1.0000  0.0000  0.0000  0.0000  0.0000
                                         0.0000  0.0000  0.0000  0.0000  0.0000
                                         0.0000  0.0000  0.0000  0.0000
   4. (1.99908) CR ( 1) C  4            s(100.00%)
                                         1.0000  0.0000  0.0000  0.0000  0.0000
                                         0.0000  0.0000  0.0000  0.0000  0.0000
                                         0.0000  0.0000  0.0000  0.0000
   5. (1.99921) CR ( 1) N  5            s(100.00%)
                                         1.0000  0.0000  0.0000  0.0000  0.0000
                                         0.0000  0.0000  0.0000  0.0000  0.0000
                                         0.0000  0.0000  0.0000  0.0000
   6. (1.99946) CR ( 1) N  6            s(100.00%)
                                         1.0000  0.0000  0.0000  0.0000  0.0000
                                         0.0000  0.0000  0.0000  0.0000  0.0000
                                         0.0000  0.0000  0.0000  0.0000
   7. (1.90279) LP ( 1) N  5            s( 30.39%)p 2.29( 69.52%)d 0.00(  0.09%)
                                         0.0000  0.5504 -0.0311 -0.2867 -0.0132
                                         0.7062  0.0304 -0.3362 -0.0145  0.0173
                                        -0.0082  0.0167  0.0138  0.0078
   8. (1.76477) LP ( 1) N  6            s(  0.00%)p 1.00(100.00%)d 0.00(  0.00%)
                                         0.0000  0.0007 -0.0001 -0.0084 -0.0004
                                        -0.4323 -0.0160 -0.9008 -0.0370  0.0027
                                         0.0059 -0.0005  0.0003  0.0004
   9. (1.98417) BD ( 1) C  1- C  2
               ( 50.39%)   0.7099* C  1 s( 30.83%)p 2.24( 69.13%)d 0.00(  0.04%)
                                         0.0000  0.5553  0.0043  0.8313  0.0023
                                        -0.0163 -0.0063 -0.0005  0.0031 -0.0014
                                         0.0004  0.0001  0.0162 -0.0094
               ( 49.61%)   0.7043* C  2 s( 33.61%)p 1.97( 66.35%)d 0.00(  0.04%)
                                         0.0000  0.5797  0.0107 -0.8142 -0.0066
                                         0.0095 -0.0196  0.0035  0.0094 -0.0015
                                         0.0004 -0.0025  0.0156 -0.0113
  10. (1.97385) BD ( 1) C  1- H  7
               ( 61.49%)   0.7841* C  1 s( 22.74%)p 3.40( 77.22%)d 0.00(  0.03%)
                                         0.0000  0.4769 -0.0002 -0.3191 -0.0095
                                        -0.0607  0.0036  0.8165 -0.0044  0.0014
                                        -0.0092 -0.0029  0.0016  0.0157
               ( 38.51%)   0.6206* H  7 s( 99.90%)p 0.00(  0.10%)
                                         0.9995 -0.0027  0.0119  0.0016 -0.0289
  11. (1.97373) BD ( 1) C  1- H  8
               ( 61.50%)   0.7842* C  1 s( 22.75%)p 3.39( 77.21%)d 0.00(  0.04%)
                                         0.0000  0.4770 -0.0004 -0.3318 -0.0090
                                        -0.6723  0.0064 -0.4582  0.0002  0.0087
                                         0.0051  0.0137 -0.0087 -0.0023
               ( 38.50%)   0.6205* H  8 s( 99.91%)p 0.00(  0.09%)
                                         0.9995 -0.0025  0.0119  0.0226  0.0161
  12. (1.98760) BD ( 1) C  1- H  9
               ( 61.28%)   0.7828* C  1 s( 23.66%)p 3.23( 76.31%)d 0.00(  0.03%)
                                         0.0000  0.4864 -0.0031 -0.3106 -0.0131
                                         0.7372 -0.0082 -0.3506  0.0038 -0.0087
                                         0.0042 -0.0112 -0.0100 -0.0048
               ( 38.72%)   0.6222* H  9 s( 99.91%)p 0.00(  0.09%)
                                         0.9995 -0.0019  0.0114 -0.0254  0.0119
  13. (1.98053) BD ( 1) C  2- C  3
               ( 49.49%)   0.7035* C  2 s( 39.53%)p 1.53( 60.42%)d 0.00(  0.05%)
                                         0.0000  0.6286  0.0099  0.4529  0.0161
                                         0.5679  0.0069 -0.2762 -0.0028  0.0154
                                        -0.0075 -0.0119 -0.0029 -0.0091
               ( 50.51%)   0.7107* C  3 s( 39.36%)p 1.54( 60.58%)d 0.00(  0.05%)
                                         0.0000  0.6272  0.0161 -0.4599 -0.0194
                                        -0.5632  0.0003  0.2770  0.0001  0.0146
                                        -0.0071 -0.0125 -0.0036 -0.0092
  14. (1.89531) BD ( 2) C  2- C  3
               ( 49.93%)   0.7066* C  2 s(  0.00%)p 1.00( 99.94%)d 0.00(  0.06%)
                                         0.0000 -0.0006  0.0021  0.0085  0.0009
                                         0.4321 -0.0052  0.9012 -0.0188  0.0059
                                         0.0116  0.0125 -0.0078 -0.0138
               ( 50.07%)   0.7076* C  3 s(  0.00%)p 1.00( 99.94%)d 0.00(  0.06%)
                                         0.0000 -0.0009 -0.0016  0.0097  0.0009
                                         0.4338 -0.0018  0.9005 -0.0134 -0.0042
                                        -0.0080 -0.0135  0.0085  0.0149
  15. (1.97350) BD ( 1) C  2- H 10
               ( 60.43%)   0.7774* C  2 s( 26.86%)p 2.72( 73.10%)d 0.00(  0.03%)
                                         0.0000  0.5179 -0.0190  0.3619 -0.0066
                                        -0.6996 -0.0011  0.3325  0.0009 -0.0113
                                         0.0052 -0.0101 -0.0062 -0.0060
               ( 39.57%)   0.6291* H 10 s( 99.90%)p 0.00(  0.10%)
                                         0.9995 -0.0049 -0.0136  0.0256 -0.0121
  16. (1.97094) BD ( 1) C  3- C  4
               ( 50.49%)   0.7105* C  3 s( 33.53%)p 1.98( 66.42%)d 0.00(  0.04%)
                                         0.0000  0.5790  0.0112  0.8146  0.0044
                                        -0.0196  0.0120  0.0012 -0.0057 -0.0025
                                         0.0008 -0.0028  0.0164 -0.0120
               ( 49.51%)   0.7037* C  4 s( 36.48%)p 1.74( 63.48%)d 0.00(  0.04%)
                                         0.0000  0.6040  0.0082 -0.7965  0.0112
                                         0.0156  0.0047  0.0005 -0.0022 -0.0050
                                         0.0020 -0.0025  0.0151 -0.0110
  17. (1.97093) BD ( 1) C  3- H 11
               ( 61.48%)   0.7841* C  3 s( 27.13%)p 2.68( 72.84%)d 0.00(  0.03%)
                                         0.0000  0.5204 -0.0231 -0.3521  0.0061
                                         0.7020 -0.0038 -0.3339  0.0010 -0.0090
                                         0.0041 -0.0104 -0.0068 -0.0060
               ( 38.52%)   0.6207* H 11 s( 99.90%)p 0.00(  0.10%)
                                         0.9995 -0.0053  0.0127 -0.0264  0.0126
  18. (1.98729) BD ( 1) C  4- N  5
               ( 39.39%)   0.6276* C  4 s( 32.98%)p 2.03( 66.90%)d 0.00(  0.12%)
                                         0.0000  0.5732  0.0350  0.4475  0.0312
                                         0.6145  0.0313 -0.2981 -0.0160  0.0229
                                        -0.0111 -0.0183 -0.0076 -0.0123
               ( 60.61%)   0.7785* N  5 s( 43.68%)p 1.29( 56.21%)d 0.00(  0.11%)
                                         0.0000  0.6606  0.0187 -0.4231  0.0143
                                        -0.5554  0.0014  0.2729 -0.0005  0.0163
                                        -0.0078 -0.0203 -0.0156 -0.0095
  19. (1.91842) BD ( 2) C  4- N  5
               ( 46.56%)   0.6823* C  4 s(  0.00%)p 1.00( 99.89%)d 0.00(  0.11%)
                                         0.0000  0.0010  0.0001 -0.0082  0.0006
                                        -0.4319  0.0050 -0.9011  0.0175 -0.0070
                                        -0.0139 -0.0186  0.0115  0.0204
               ( 53.44%)   0.7310* N  5 s(  0.00%)p 1.00( 99.83%)d 0.00(  0.17%)
                                         0.0000  0.0012  0.0014 -0.0098  0.0012
                                        -0.4334  0.0027 -0.9002  0.0053  0.0007
                                         0.0003  0.0253 -0.0160 -0.0276
  20. (1.98396) BD ( 1) C  4- H 12
               ( 59.07%)   0.7686* C  4 s( 30.60%)p 2.27( 69.37%)d 0.00(  0.03%)
                                         0.0000  0.5523 -0.0304  0.4058 -0.0102
                                        -0.6570 -0.0006  0.3119  0.0011 -0.0121
                                         0.0056 -0.0095 -0.0055 -0.0060
               ( 40.93%)   0.6397* H 12 s( 99.91%)p 0.00(  0.09%)
                                         0.9995 -0.0120 -0.0120  0.0252 -0.0120
  21. (1.99025) BD ( 1) N  5- N  6
               ( 48.70%)   0.6979* N  5 s( 26.09%)p 2.83( 73.74%)d 0.01(  0.16%)
                                         0.0000  0.5093  0.0399  0.8557 -0.0461
                                        -0.0413 -0.0308  0.0113  0.0152 -0.0152
                                         0.0066 -0.0042  0.0296 -0.0211
               ( 51.30%)   0.7162* N  6 s( 34.75%)p 1.88( 65.16%)d 0.00(  0.09%)
                                         0.0000  0.5893  0.0153 -0.8059  0.0347
                                         0.0246 -0.0169 -0.0039  0.0074 -0.0015
                                         0.0001 -0.0043  0.0234 -0.0175
  22. (1.99282) BD ( 1) N  6- H 13
               ( 69.72%)   0.8350* N  6 s( 32.11%)p 2.11( 67.85%)d 0.00(  0.04%)
                                         0.0000  0.5666 -0.0010  0.4346 -0.0152
                                         0.6292 -0.0092 -0.3057  0.0057  0.0121
                                        -0.0057 -0.0120 -0.0074 -0.0069
               ( 30.28%)   0.5503* H 13 s( 99.80%)p 0.00(  0.20%)
                                         0.9990 -0.0027 -0.0228 -0.0348  0.0171
  23. (1.99643) BD ( 1) N  6- H 14
               ( 68.97%)   0.8305* N  6 s( 33.10%)p 2.02( 66.86%)d 0.00(  0.04%)
                                         0.0000  0.5752 -0.0101  0.3980 -0.0250
                                        -0.6447  0.0074  0.3062 -0.0045 -0.0123
                                         0.0057 -0.0123 -0.0079 -0.0071
               ( 31.03%)   0.5570* H 14 s( 99.81%)p 0.00(  0.19%)
                                         0.9989 -0.0181 -0.0225  0.0335 -0.0161
 ---------------- non-Lewis ----------------------------------------------------
  24. (0.01093) BD*( 1) C  1- C  2
               ( 49.61%)   0.7043* C  1 s( 30.83%)p 2.24( 69.13%)d 0.00(  0.04%)
                                         0.0000 -0.5553 -0.0043 -0.8313 -0.0023
                                         0.0163  0.0063  0.0005 -0.0031  0.0014
                                        -0.0004 -0.0001 -0.0162  0.0094
               ( 50.39%)  -0.7099* C  2 s( 33.61%)p 1.97( 66.35%)d 0.00(  0.04%)
                                         0.0000 -0.5797 -0.0107  0.8142  0.0066
                                        -0.0095  0.0196 -0.0035 -0.0094  0.0015
                                        -0.0004  0.0025 -0.0156  0.0113
  25. (0.01266) BD*( 1) C  1- H  7
               ( 38.51%)   0.6206* C  1 s( 22.74%)p 3.40( 77.22%)d 0.00(  0.03%)
                                         0.0000 -0.4769  0.0002  0.3191  0.0095
                                         0.0607 -0.0036 -0.8165  0.0044 -0.0014
                                         0.0092  0.0029 -0.0016 -0.0157
               ( 61.49%)  -0.7841* H  7 s( 99.90%)p 0.00(  0.10%)
                                        -0.9995  0.0027 -0.0119 -0.0016  0.0289
  26. (0.01258) BD*( 1) C  1- H  8
               ( 38.50%)   0.6205* C  1 s( 22.75%)p 3.39( 77.21%)d 0.00(  0.04%)
                                         0.0000 -0.4770  0.0004  0.3318  0.0090
                                         0.6723 -0.0064  0.4582 -0.0002 -0.0087
                                        -0.0051 -0.0137  0.0087  0.0023
               ( 61.50%)  -0.7842* H  8 s( 99.91%)p 0.00(  0.09%)
                                        -0.9995  0.0025 -0.0119 -0.0226 -0.0161
  27. (0.00837) BD*( 1) C  1- H  9
               ( 38.72%)   0.6222* C  1 s( 23.66%)p 3.23( 76.31%)d 0.00(  0.03%)
                                         0.0000 -0.4864  0.0031  0.3106  0.0131
                                        -0.7372  0.0082  0.3506 -0.0038  0.0087
                                        -0.0042  0.0112  0.0100  0.0048
               ( 61.28%)  -0.7828* H  9 s( 99.91%)p 0.00(  0.09%)
                                        -0.9995  0.0019 -0.0114  0.0254 -0.0119
  28. (0.01513) BD*( 1) C  2- C  3
               ( 50.51%)   0.7107* C  2 s( 39.53%)p 1.53( 60.42%)d 0.00(  0.05%)
                                         0.0000  0.6286  0.0099  0.4529  0.0161
                                         0.5679  0.0069 -0.2762 -0.0028  0.0154
                                        -0.0075 -0.0119 -0.0029 -0.0091
               ( 49.49%)  -0.7035* C  3 s( 39.36%)p 1.54( 60.58%)d 0.00(  0.05%)
                                         0.0000  0.6272  0.0161 -0.4599 -0.0194
                                        -0.5632  0.0003  0.2770  0.0001  0.0146
                                        -0.0071 -0.0125 -0.0036 -0.0092
  29. (0.14608) BD*( 2) C  2- C  3
               ( 50.07%)   0.7076* C  2 s(  0.00%)p 1.00( 99.94%)d 0.00(  0.06%)
                                         0.0000 -0.0006  0.0021  0.0085  0.0009
                                         0.4321 -0.0052  0.9012 -0.0188  0.0059
                                         0.0116  0.0125 -0.0078 -0.0138
               ( 49.93%)  -0.7066* C  3 s(  0.00%)p 1.00( 99.94%)d 0.00(  0.06%)
                                         0.0000 -0.0009 -0.0016  0.0097  0.0009
                                         0.4338 -0.0018  0.9005 -0.0134 -0.0042
                                        -0.0080 -0.0135  0.0085  0.0149
  30. (0.02291) BD*( 1) C  2- H 10
               ( 39.57%)   0.6291* C  2 s( 26.86%)p 2.72( 73.10%)d 0.00(  0.03%)
                                         0.0000 -0.5179  0.0190 -0.3619  0.0066
                                         0.6996  0.0011 -0.3325 -0.0009  0.0113
                                        -0.0052  0.0101  0.0062  0.0060
               ( 60.43%)  -0.7774* H 10 s( 99.90%)p 0.00(  0.10%)
                                        -0.9995  0.0049  0.0136 -0.0256  0.0121
  31. (0.02276) BD*( 1) C  3- C  4
               ( 49.51%)   0.7037* C  3 s( 33.53%)p 1.98( 66.42%)d 0.00(  0.04%)
                                         0.0000 -0.5790 -0.0112 -0.8146 -0.0044
                                         0.0196 -0.0120 -0.0012  0.0057  0.0025
                                        -0.0008  0.0028 -0.0164  0.0120
               ( 50.49%)  -0.7105* C  4 s( 36.48%)p 1.74( 63.48%)d 0.00(  0.04%)
                                         0.0000 -0.6040 -0.0082  0.7965 -0.0112
                                        -0.0156 -0.0047 -0.0005  0.0022  0.0050
                                        -0.0020  0.0025 -0.0151  0.0110
  32. (0.02286) BD*( 1) C  3- H 11
               ( 38.52%)   0.6207* C  3 s( 27.13%)p 2.68( 72.84%)d 0.00(  0.03%)
                                         0.0000 -0.5204  0.0231  0.3521 -0.0061
                                        -0.7020  0.0038  0.3339 -0.0010  0.0090
                                        -0.0041  0.0104  0.0068  0.0060
               ( 61.48%)  -0.7841* H 11 s( 99.90%)p 0.00(  0.10%)
                                        -0.9995  0.0053 -0.0127  0.0264 -0.0126
  33. (0.01097) BD*( 1) C  4- N  5
               ( 60.61%)   0.7785* C  4 s( 32.98%)p 2.03( 66.90%)d 0.00(  0.12%)
                                         0.0000  0.5732  0.0350  0.4475  0.0312
                                         0.6145  0.0313 -0.2981 -0.0160  0.0229
                                        -0.0111 -0.0183 -0.0076 -0.0123
               ( 39.39%)  -0.6276* N  5 s( 43.68%)p 1.29( 56.21%)d 0.00(  0.11%)
                                         0.0000  0.6606  0.0187 -0.4231  0.0143
                                        -0.5554  0.0014  0.2729 -0.0005  0.0163
                                        -0.0078 -0.0203 -0.0156 -0.0095
  34. (0.28077) BD*( 2) C  4- N  5
               ( 53.44%)   0.7310* C  4 s(  0.00%)p 1.00( 99.89%)d 0.00(  0.11%)
                                         0.0000 -0.0010 -0.0001  0.0082 -0.0006
                                         0.4319 -0.0050  0.9011 -0.0175  0.0070
                                         0.0139  0.0186 -0.0115 -0.0204
               ( 46.56%)  -0.6823* N  5 s(  0.00%)p 1.00( 99.83%)d 0.00(  0.17%)
                                         0.0000 -0.0012 -0.0014  0.0098 -0.0012
                                         0.4334 -0.0027  0.9002 -0.0053 -0.0007
                                        -0.0003 -0.0253  0.0160  0.0276
  35. (0.04244) BD*( 1) C  4- H 12
               ( 40.93%)   0.6397* C  4 s( 30.60%)p 2.27( 69.37%)d 0.00(  0.03%)
                                         0.0000 -0.5523  0.0304 -0.4058  0.0102
                                         0.6570  0.0006 -0.3119 -0.0011  0.0121
                                        -0.0056  0.0095  0.0055  0.0060
               ( 59.07%)  -0.7686* H 12 s( 99.91%)p 0.00(  0.09%)
                                        -0.9995  0.0120  0.0120 -0.0252  0.0120
  36. (0.01214) BD*( 1) N  5- N  6
               ( 51.30%)   0.7162* N  5 s( 26.09%)p 2.83( 73.74%)d 0.01(  0.16%)
                                         0.0000 -0.5093 -0.0399 -0.8557  0.0461
                                         0.0413  0.0308 -0.0113 -0.0152  0.0152
                                        -0.0066  0.0042 -0.0296  0.0211
               ( 48.70%)  -0.6979* N  6 s( 34.75%)p 1.88( 65.16%)d 0.00(  0.09%)
                                         0.0000 -0.5893 -0.0153  0.8059 -0.0347
                                        -0.0246  0.0169  0.0039 -0.0074  0.0015
                                        -0.0001  0.0043 -0.0234  0.0175
  37. (0.01059) BD*( 1) N  6- H 13
               ( 30.28%)   0.5503* N  6 s( 32.11%)p 2.11( 67.85%)d 0.00(  0.04%)
                                         0.0000 -0.5666  0.0010 -0.4346  0.0152
                                        -0.6292  0.0092  0.3057 -0.0057 -0.0121
                                         0.0057  0.0120  0.0074  0.0069
               ( 69.72%)  -0.8350* H 13 s( 99.80%)p 0.00(  0.20%)
                                        -0.9990  0.0027  0.0228  0.0348 -0.0171
  38. (0.03573) BD*( 1) N  6- H 14
               ( 31.03%)   0.5570* N  6 s( 33.10%)p 2.02( 66.86%)d 0.00(  0.04%)
                                         0.0000 -0.5752  0.0101 -0.3980  0.0250
                                         0.6447 -0.0074 -0.3062  0.0045  0.0123
                                        -0.0057  0.0123  0.0079  0.0071
               ( 68.97%)  -0.8305* H 14 s( 99.81%)p 0.00(  0.19%)
                                        -0.9989  0.0181  0.0225 -0.0335  0.0161
  39. (0.00295) RY ( 1) C  1            s(  2.28%)p39.40( 89.98%)d 3.39(  7.74%)
                                         0.0000  0.0052  0.1510  0.0032  0.1622
                                         0.0141  0.8264 -0.0067 -0.4361  0.2406
                                        -0.1324  0.0166  0.0410  0.0005
  40. (0.00122) RY ( 2) C  1            s(  0.05%)p99.99( 59.01%)d99.99( 40.94%)
                                         0.0000  0.0002  0.0221 -0.0002  0.0375
                                         0.0063  0.3528  0.0107  0.6812  0.2914
                                         0.5565  0.0714 -0.0362 -0.0913
  41. (0.00037) RY ( 3) C  1            s( 20.08%)p 3.94( 79.14%)d 0.04(  0.78%)
                                         0.0000  0.0109  0.4480 -0.0154  0.8622
                                         0.0000 -0.2076 -0.0002  0.0688 -0.0358
                                        -0.0110 -0.0373  0.0448 -0.0550
  42. (0.00008) RY ( 4) C  1            s( 35.39%)p 0.36( 12.68%)d 1.47( 51.92%)
  43. (0.00003) RY ( 5) C  1            s( 25.37%)p 0.27(  6.90%)d 2.67( 67.73%)
  44. (0.00001) RY ( 6) C  1            s(  0.00%)p 1.00( 37.31%)d 1.68( 62.68%)
  45. (0.00000) RY ( 7) C  1            s(  7.76%)p 1.28(  9.92%)d10.60( 82.31%)
  46. (0.00000) RY ( 8) C  1            s(  9.03%)p 0.17(  1.55%)d 9.90( 89.41%)
  47. (0.00000) RY ( 9) C  1            s(  0.04%)p95.40(  3.62%)d99.99( 96.34%)
  48. (0.00530) RY ( 1) C  2            s(  9.03%)p 9.30( 84.00%)d 0.77(  6.97%)
                                         0.0000 -0.0076  0.3004  0.0068  0.8161
                                        -0.0184 -0.3817  0.0084  0.1668  0.1322
                                        -0.0615  0.0795  0.2005 -0.0439
  49. (0.00219) RY ( 2) C  2            s(  0.04%)p99.99( 88.84%)d99.99( 11.13%)
                                         0.0000  0.0004  0.0195 -0.0030  0.0814
                                         0.0089  0.5166  0.0220  0.7838 -0.1733
                                        -0.2621 -0.0688  0.0480  0.0742
  50. (0.00165) RY ( 3) C  2            s(  0.23%)p99.99( 88.53%)d48.11( 11.24%)
                                         0.0000  0.0058  0.0480 -0.0188  0.4436
                                        -0.0085  0.6766 -0.0040 -0.4798 -0.2605
                                         0.2002  0.0011  0.0298 -0.0597
  51. (0.00032) RY ( 4) C  2            s(  0.06%)p99.99( 11.34%)d99.99( 88.60%)
                                         0.0000 -0.0002  0.0245 -0.0002 -0.0126
                                        -0.0064  0.1383 -0.0112  0.3065  0.3979
                                         0.7462  0.2480 -0.1709 -0.2832
  52. (0.00024) RY ( 5) C  2            s( 75.35%)p 0.18( 13.63%)d 0.15( 11.01%)
                                         0.0000 -0.0028  0.8681  0.0096 -0.3016
                                        -0.0200  0.1823  0.0072 -0.1077  0.2439
                                        -0.1443 -0.0254  0.1470 -0.0872
  53. (0.00017) RY ( 6) C  2            s(  4.49%)p 2.34( 10.48%)d18.96( 85.04%)
                                         0.0000 -0.0033  0.2118  0.0197 -0.1634
                                         0.0142 -0.2445 -0.0063  0.1328 -0.7516
                                         0.3767  0.0348  0.3302 -0.1824
  54. (0.00008) RY ( 7) C  2            s(  6.03%)p 0.52(  3.13%)d15.08( 90.84%)
  55. (0.00001) RY ( 8) C  2            s(  4.77%)p 0.02(  0.11%)d19.94( 95.12%)
  56. (0.00000) RY ( 9) C  2            s(  0.00%)p 1.00(  0.13%)d99.99( 99.86%)
  57. (0.00556) RY ( 1) C  3            s(  4.10%)p22.62( 92.75%)d 0.77(  3.15%)
                                         0.0000 -0.0065  0.2024 -0.0154  0.0931
                                         0.0079  0.8688 -0.0077 -0.4046  0.1354
                                        -0.0719  0.0314  0.0826 -0.0128
  58. (0.00479) RY ( 2) C  3            s(  8.90%)p 9.69( 86.28%)d 0.54(  4.83%)
                                         0.0000 -0.0076  0.2982  0.0028 -0.9284
                                         0.0238  0.0040 -0.0098  0.0105  0.0454
                                        -0.0191  0.0828  0.1937 -0.0383
  59. (0.00115) RY ( 3) C  3            s(  0.02%)p99.99( 44.79%)d99.99( 55.19%)
                                         0.0000 -0.0003  0.0155 -0.0002 -0.0073
                                        -0.0094 -0.2882 -0.0194 -0.6036 -0.2995
                                        -0.6021 -0.1922  0.1169  0.2214
  60. (0.00073) RY ( 4) C  3            s( 83.09%)p 0.15( 12.36%)d 0.05(  4.55%)
                                         0.0000 -0.0030  0.9116 -0.0053  0.2672
                                         0.0214 -0.2055 -0.0075  0.0971  0.1320
                                        -0.0468 -0.0973 -0.1258 -0.0243
  61. (0.00038) RY ( 5) C  3            s(  0.00%)p 1.00( 55.12%)d 0.81( 44.88%)
                                         0.0000  0.0003  0.0067 -0.0001  0.0063
                                        -0.0002  0.3084 -0.0014  0.6753 -0.2736
                                        -0.5616 -0.1487  0.0831  0.1717
  62. (0.00012) RY ( 6) C  3            s(  1.63%)p 2.72(  4.43%)d57.54( 93.93%)
                                         0.0000 -0.0005  0.1278 -0.0217  0.2045
                                        -0.0051 -0.0389  0.0029  0.0225 -0.4485
                                         0.2076  0.2258  0.7653 -0.2416
  63. (0.00006) RY ( 7) C  3            s(  0.77%)p 5.39(  4.15%)d99.99( 95.08%)
  64. (0.00001) RY ( 8) C  3            s(  1.44%)p 0.13(  0.18%)d68.19( 98.37%)
  65. (0.00000) RY ( 9) C  3            s(  0.00%)p 1.00(  0.15%)d99.99( 99.85%)
  66. (0.00886) RY ( 1) C  4            s( 39.60%)p 1.23( 48.59%)d 0.30( 11.80%)
                                         0.0000 -0.0241  0.6289  0.0036  0.6261
                                        -0.0516  0.2663  0.0238 -0.1405  0.0886
                                        -0.0428  0.1171  0.3004 -0.0666
  67. (0.00418) RY ( 2) C  4            s(  7.73%)p11.33( 87.57%)d 0.61(  4.70%)
                                         0.0000  0.0156  0.2776  0.0098  0.1127
                                         0.0023 -0.8472  0.0020  0.3809  0.1872
                                        -0.1004  0.0032  0.0416 -0.0102
  68. (0.00160) RY ( 3) C  4            s(  6.58%)p10.97( 72.12%)d 3.24( 21.30%)
                                         0.0000  0.0020  0.2565 -0.0001 -0.3628
                                        -0.0179 -0.2616 -0.0202 -0.7215  0.2788
                                         0.3087  0.1164 -0.0073 -0.1622
  69. (0.00147) RY ( 4) C  4            s( 25.61%)p 2.35( 60.18%)d 0.56( 14.21%)
                                         0.0000  0.0036  0.5060  0.0010 -0.6612
                                        -0.0059  0.2773  0.0178  0.2956  0.0955
                                        -0.3168 -0.0668  0.1665  0.0208
  70. (0.00093) RY ( 5) C  4            s(  0.09%)p99.99( 26.47%)d99.99( 73.45%)
                                         0.0000  0.0003  0.0299 -0.0003 -0.0204
                                        -0.0073  0.2121 -0.0138  0.4680  0.3385
                                         0.6442  0.2734 -0.1739 -0.3159
  71. (0.00016) RY ( 6) C  4            s(  0.96%)p 4.71(  4.51%)d98.71( 94.53%)
                                         0.0000 -0.0111  0.0972 -0.0231  0.1509
                                        -0.0270  0.1267  0.0130 -0.0697  0.5168
                                        -0.2531 -0.3114 -0.7058  0.1382
  72. (0.00015) RY ( 7) C  4            s( 17.54%)p 0.02(  0.44%)d 4.68( 82.03%)
                                         0.0000 -0.0044  0.4188 -0.0011 -0.0173
                                         0.0001 -0.0583  0.0002  0.0259 -0.6591
                                         0.3174 -0.3150 -0.4274 -0.0564
  73. (0.00001) RY ( 8) C  4            s(  1.83%)p 0.11(  0.20%)d53.62( 97.98%)
  74. (0.00000) RY ( 9) C  4            s(  0.00%)p 1.00(  0.29%)d99.99( 99.71%)
  75. (0.00554) RY ( 1) N  5            s( 16.89%)p 4.50( 76.04%)d 0.42(  7.07%)
                                         0.0000 -0.0007  0.4110 -0.0261  0.4598
                                         0.0362 -0.6642 -0.0159  0.3249  0.1609
                                        -0.0796  0.0260  0.1784 -0.0776
  76. (0.00225) RY ( 2) N  5            s(  0.16%)p99.99( 96.69%)d20.00(  3.15%)
                                         0.0000 -0.0188  0.0349 -0.0508 -0.8473
                                         0.0012 -0.4303 -0.0023  0.2474  0.0825
                                        -0.1253 -0.0615 -0.0672  0.0258
  77. (0.00183) RY ( 3) N  5            s(  0.01%)p99.99( 22.40%)d99.99( 77.59%)
                                         0.0000 -0.0018  0.0118 -0.0044 -0.0776
                                         0.0045 -0.2388  0.0082 -0.4010  0.3785
                                         0.7417  0.1688 -0.1109 -0.2044
  78. (0.00037) RY ( 4) N  5            s(  2.76%)p27.56( 75.94%)d 7.73( 21.31%)
                                         0.0000 -0.0041  0.1659 -0.0078 -0.0497
                                         0.0088  0.4366  0.0108  0.7523  0.1405
                                         0.3930  0.1223 -0.0352 -0.1505
  79. (0.00034) RY ( 5) N  5            s( 56.43%)p 0.29( 16.35%)d 0.48( 27.22%)
                                         0.0000 -0.0171  0.7510 -0.0457 -0.2238
                                         0.0093  0.1895 -0.0061 -0.2745 -0.3608
                                         0.0741  0.0640  0.3524 -0.0911
  80. (0.00015) RY ( 6) N  5            s( 20.48%)p 0.38(  7.69%)d 3.51( 71.83%)
                                         0.0000 -0.0106  0.4524  0.0278  0.0146
                                         0.0209  0.2299 -0.0102 -0.1503  0.5475
                                        -0.2876 -0.2757 -0.5057  0.0634
  81. (0.00002) RY ( 7) N  5            s(  3.04%)p 0.76(  2.30%)d31.13( 94.66%)
  82. (0.00001) RY ( 8) N  5            s(  0.07%)p41.85(  2.96%)d99.99( 96.97%)
  83. (0.00000) RY ( 9) N  5            s(  0.00%)p 1.00(  0.31%)d99.99( 99.69%)
  84. (0.00298) RY ( 1) N  6            s(  2.36%)p32.72( 77.33%)d 8.59( 20.31%)
                                         0.0000  0.0023  0.1537  0.0040  0.1125
                                        -0.0167  0.5558 -0.0266  0.6714  0.3321
                                         0.3020  0.0088  0.0070 -0.0389
  85. (0.00251) RY ( 2) N  6            s( 20.61%)p 2.38( 49.06%)d 1.47( 30.34%)
                                         0.0000  0.0054  0.4539  0.0148  0.3139
                                        -0.0018  0.3758  0.0133 -0.5004  0.4017
                                        -0.3719 -0.0284  0.0456 -0.0286
  86. (0.00099) RY ( 3) N  6            s(  1.20%)p64.93( 77.73%)d17.60( 21.07%)
                                         0.0000 -0.0077  0.1091  0.0309  0.4432
                                        -0.0224 -0.6804  0.0084  0.3411  0.4190
                                        -0.1869 -0.0049 -0.0127  0.0076
  87. (0.00026) RY ( 4) N  6            s( 12.89%)p 2.80( 36.11%)d 3.96( 51.00%)
                                         0.0000 -0.0033  0.3590  0.0393  0.5993
                                         0.0048 -0.0185 -0.0023 -0.0049 -0.6162
                                         0.2977 -0.0048  0.1703 -0.1126
  88. (0.00003) RY ( 5) N  6            s( 45.27%)p 0.45( 20.44%)d 0.76( 34.29%)
  89. (0.00001) RY ( 6) N  6            s(  1.02%)p 8.44(  8.60%)d88.68( 90.38%)
  90. (0.00000) RY ( 7) N  6            s(  0.02%)p99.99( 13.81%)d99.99( 86.17%)
  91. (0.00000) RY ( 8) N  6            s( 16.63%)p 0.65( 10.86%)d 4.36( 72.51%)
  92. (0.00000) RY ( 9) N  6            s(  0.04%)p99.99(  6.20%)d99.99( 93.76%)
  93. (0.00197) RY ( 1) H  7            s( 97.64%)p 0.02(  2.36%)
                                         0.0063  0.9881 -0.1362 -0.0039  0.0711
  94. (0.00018) RY ( 2) H  7            s(  0.00%)p 1.00(100.00%)
                                         0.0006  0.0015  0.0272  0.9960  0.0850
  95. (0.00014) RY ( 3) H  7            s(  0.39%)p99.99( 99.61%)
                                         0.0090  0.0620  0.7769 -0.0744  0.6221
  96. (0.00002) RY ( 4) H  7            s(  2.07%)p47.38( 97.93%)
  97. (0.00191) RY ( 1) H  8            s( 97.40%)p 0.03(  2.60%)
                                         0.0064  0.9869 -0.1388 -0.0692 -0.0443
  98. (0.00018) RY ( 2) H  8            s(  0.01%)p 1.00( 99.99%)
                                         0.0021  0.0092  0.1082  0.4741 -0.8738
  99. (0.00015) RY ( 3) H  8            s(  0.31%)p99.99( 99.69%)
                                         0.0083  0.0549  0.7634 -0.6007 -0.2308
 100. (0.00002) RY ( 4) H  8            s(  2.38%)p41.08( 97.62%)
 101. (0.00182) RY ( 1) H  9            s( 97.94%)p 0.02(  2.06%)
                                         0.0060  0.9896 -0.0939  0.0993 -0.0434
 102. (0.00015) RY ( 2) H  9            s(  0.00%)p 1.00(100.00%)
                                         0.0009  0.0012  0.0349 -0.3824 -0.9234
 103. (0.00012) RY ( 3) H  9            s(  0.03%)p99.99( 99.97%)
                                         0.0066  0.0156  0.8215  0.5369 -0.1913
 104. (0.00002) RY ( 4) H  9            s(  2.12%)p46.19( 97.88%)
 105. (0.00297) RY ( 1) H 10            s( 98.94%)p 0.01(  1.06%)
                                         0.0081  0.9947  0.0452 -0.0867  0.0320
 106. (0.00022) RY ( 2) H 10            s(  0.01%)p 1.00( 99.99%)
                                         0.0002  0.0077  0.0154  0.4302  0.9026
 107. (0.00008) RY ( 3) H 10            s(  0.21%)p99.99( 99.79%)
 108. (0.00006) RY ( 4) H 10            s(  0.94%)p99.99( 99.06%)
 109. (0.00364) RY ( 1) H 11            s( 98.91%)p 0.01(  1.09%)
                                         0.0086  0.9945 -0.0286  0.0936 -0.0362
 110. (0.00018) RY ( 2) H 11            s(  0.00%)p 1.00(100.00%)
                                         0.0005  0.0064 -0.0268 -0.4256 -0.9045
 111. (0.00007) RY ( 3) H 11            s(  0.20%)p99.99( 99.80%)
 112. (0.00006) RY ( 4) H 11            s(  0.98%)p99.99( 99.02%)
 113. (0.00560) RY ( 1) H 12            s( 99.49%)p 0.01(  0.51%)
                                         0.0140  0.9974 -0.0001 -0.0653  0.0285
 114. (0.00019) RY ( 2) H 12            s(  0.00%)p 1.00(100.00%)
                                         0.0001  0.0024  0.0040  0.4309  0.9024
 115. (0.00008) RY ( 3) H 12            s(  0.11%)p99.99( 99.89%)
 116. (0.00003) RY ( 4) H 12            s(  0.49%)p99.99( 99.51%)
 117. (0.00137) RY ( 1) H 13            s( 97.49%)p 0.03(  2.51%)
                                         0.0093  0.9873  0.0295  0.1507 -0.0389
 118. (0.00071) RY ( 2) H 13            s(  0.09%)p99.99( 99.91%)
                                         0.0005  0.0298 -0.0058 -0.4271 -0.9037
 119. (0.00011) RY ( 3) H 13            s(  0.79%)p99.99( 99.21%)
                                        -0.0111  0.0884  0.7028 -0.6387  0.3003
 120. (0.00002) RY ( 4) H 13            s(  1.83%)p53.68( 98.17%)
 121. (0.00606) RY ( 1) H 14            s( 99.07%)p 0.01(  0.93%)
                                         0.0221  0.9951  0.0663 -0.0641  0.0281
 122. (0.00069) RY ( 2) H 14            s(  0.00%)p 1.00(100.00%)
                                         0.0002  0.0018  0.0116  0.4347  0.9005
 123. (0.00016) RY ( 3) H 14            s(  0.01%)p 1.00( 99.99%)
                                         0.0088  0.0008 -0.7325 -0.6093  0.3036
 124. (0.00003) RY ( 4) H 14            s(  1.11%)p89.01( 98.89%)


 NHO DIRECTIONALITY AND BOND BENDING (deviation from line of nuclear centers at
                                      the position of maximum hybrid amplitude)

         [Thresholds for printing:  angular deviation  >  1.0 degree]
                                    p- or d-character  > 25.0%
                                    orbital occupancy  >  0.10e

                        Line of Centers        Hybrid 1             Hybrid 2
                        ---------------  -------------------  ------------------
           NBO            Theta   Phi    Theta   Phi    Dev   Theta   Phi    Dev
 ===============================================================================
   7. LP ( 1) N  5          --     --    113.8  112.2   --      --     --    --
   8. LP ( 1) N  6          --     --    154.4  268.6   --      --     --    --
  14. BD ( 2) C  2- C  3  110.9   51.3   155.0  270.0  89.1   153.5  267.7  89.1
  16. BD ( 1) C  3- C  4   89.8  358.3     --     --    --     90.7  177.3   1.1
  19. BD ( 2) C  4- N  5  111.7   54.8   155.5  270.5  88.7    24.6   88.7  89.1
  20. BD ( 1) C  4- H 12   67.4  298.9    68.0  301.1   2.1     --     --    --


[...]
 10 H                 0.2      54.3      -0.1       0.0      -0.3      -0.1
 11 H                 0.3      -0.3       0.4       0.1      51.8       0.1
 13 H                 0.0      -0.0       0.2       0.0       0.1       0.2

                     36        37        38        39        40        41   
                   0.00000   0.00000   0.00000   0.00000   0.00000   0.00000
                   0.01059   0.03573   0.00295   0.00122   0.00037   0.00008
                  --------  --------  --------  --------  --------  --------
  0 C                 0.0       0.0     142.2     120.1     195.5     147.0
  1 C                -0.0      -0.0     -18.9      -3.1     -86.7     -11.2
  2 C                 0.0      -0.0       2.4      -0.1      -2.5       1.2
  3 C                 0.0      -0.0      -0.2      -0.1      -0.8      -0.1
  4 N                -0.1      -0.2      -0.0      -0.0      -0.4      -0.0
  5 N                34.3      35.2      -0.0      -0.0      -0.1       0.0
  6 H                -0.0      -0.0      -3.9      -7.7      -1.1      -9.4
  7 H                -0.0      -0.0      -3.3      -7.6      -1.2      -8.8
  8 H                -0.0       0.0     -18.3      -1.5      -0.2     -18.6
  9 H                -0.0       0.0       0.1      -0.0      -1.5      -0.1
 10 H                 0.0       0.0      -0.0       0.0      -1.0      -0.0
 11 H                -0.1       0.2       0.0      -0.0      -0.1       0.0
 12 H                65.9      -0.0      -0.0      -0.0      -0.0      -0.0
 13 H                -0.0      64.9      -0.0      -0.0      -0.0      -0.0

                     42        43        44        45        46        47   
                   0.00000   0.00000   0.00000   0.00000   0.00000   0.00000
                   0.00003   0.00001   0.00000   0.00000   0.00000   0.00530
                  --------  --------  --------  --------  --------  --------
  0 C               138.1     117.4     116.4     119.6     113.8     -15.8
  1 C               -12.3      -4.3      -3.7      -2.7       0.1     189.7
  2 C                -0.1       0.1       0.2      -0.0      -0.0     -45.7
  3 C                -0.1      -0.0      -0.0      -0.1       0.0       1.3
  4 N                -0.1      -0.0      -0.0      -0.0       0.0      -0.8
  5 N                -0.0      -0.0      -0.0      -0.0      -0.0      -0.1
  6 H                -9.2      -6.9      -4.4      -4.4      -6.1       0.1
  7 H                -9.7      -6.9      -4.8      -5.1      -5.4       0.1
  8 H                -6.2       0.7      -3.8      -7.1      -2.3       0.0
  9 H                -0.2      -0.1       0.1      -0.1       0.0     -27.6
 10 H                -0.0      -0.0      -0.1      -0.0      -0.0      -0.7
 11 H                -0.0       0.0      -0.0      -0.0       0.0      -0.4

                     48        49        50        51        52        53   
                   0.00000   0.00000   0.00000   0.00000   0.00000   0.00000
                   0.00219   0.00165   0.00032   0.00024   0.00017   0.00008
                  --------  --------  --------  --------  --------  --------
  0 C                -3.9     -25.2      -3.3     -77.6      -7.3      -3.8
  1 C               113.0     210.1     105.4     277.2     116.2     124.6
  2 C                -8.1     -71.8      -2.3     -96.7      -1.2     -11.6
  3 C                 0.1      -1.4      -0.0      -1.1      -0.7       2.3
  4 N                -0.0      -0.5      -0.0      -0.2      -0.0       0.0
  5 N                -0.0      -0.2       0.0      -0.1       0.0       0.0
  6 H                -0.3       0.6       0.2      -1.0       0.1      -0.0
  7 H                -0.2       0.6       0.1      -1.0       0.1      -0.0
  8 H                 0.0      -0.5      -0.1       2.8      -0.0       0.0
  9 H                -0.4      -9.7      -0.0      -2.8      -7.1     -11.2
 10 H                -0.1      -0.8       0.0       0.5      -0.0      -0.1
 11 H                -0.0      -1.2      -0.0      -0.0       0.0      -0.1

                     54        55        56        57        58        59   
                   0.00000   0.00000   0.00000   0.00000   0.00000   0.00000
                   0.00001   0.00000   0.00556   0.00479   0.00115   0.00073
                  --------  --------  --------  --------  --------  --------
  0 C                -5.8      -0.3      -1.2       2.5       0.1      -0.9
  1 C               116.1     104.2     -30.0     -81.1      -5.0    -113.6
  2 C                -8.9      -0.9     194.5     219.4     107.4     338.0
  3 C                 0.2      -0.0     -30.6     -22.7      -2.2    -124.7
  4 N                -0.1      -0.0      -0.6      -0.9      -0.0       2.3
  5 N                -0.0      -0.0      -0.2      -0.5      -0.0      -0.6
  6 H                -0.1      -0.0       0.0       0.1      -0.0       0.0
  7 H                -0.1      -0.0       0.0       0.1      -0.0       0.0
  8 H                 0.1      -0.1      -0.1      -2.4      -0.0      -0.1
  9 H                -1.5      -2.8       0.6      -2.3      -0.1       2.0
 10 H                -0.0      -0.0     -32.6     -11.1      -0.1      -3.0
 11 H                -0.0      -0.0       0.1      -1.1       0.0       0.8
 13 H                -0.0      -0.0       0.0       0.0      -0.0      -0.1

                     60        61        62        63        64        65   
                   0.00000   0.00000   0.00000   0.00000   0.00000   0.00000
                   0.00038   0.00012   0.00006   0.00001   0.00000   0.00886
                  --------  --------  --------  --------  --------  --------
  0 C                -0.0       0.4       0.6      -0.0      -0.0      -0.2
  1 C                -3.9      -5.2      -5.1      -3.1      -0.8      -2.5
  2 C               109.2     113.2     118.2     107.3     104.4      -8.5
  3 C                -5.2      -6.0      -2.0      -3.4      -0.3     180.3
  4 N                 0.0       0.3      -0.0       0.1      -0.0     -52.3
  5 N                -0.0       0.1      -0.0      -0.1      -0.0      -8.8
  8 H                 0.0       0.1      -0.2      -0.0      -0.0      -0.0
  9 H                -0.0      -0.1       0.0      -0.0      -0.0      -0.2
 10 H                -0.0      -2.6     -11.6      -0.7      -3.1       0.1
 11 H                -0.1      -0.1       0.1      -0.0      -0.0      -6.2
 12 H                -0.0      -0.0       0.0      -0.0      -0.0      -0.2
 13 H                -0.0      -0.0       0.0      -0.0      -0.0      -1.5

                     66        67        68        69        70        71   
                   0.00000   0.00000   0.00000   0.00000   0.00000   0.00000
                   0.00418   0.00160   0.00147   0.00093   0.00016   0.00015
                  --------  --------  --------  --------  --------  --------
  0 C                -0.5      -0.1      -0.4      -0.0       0.0       0.0
  1 C                -0.5      -0.1       0.1       0.1       1.0       2.5
  2 C               -25.4     -28.8     -94.7      -3.8      -4.6     -27.5
  3 C               184.1     138.5     214.4     105.6     109.2     147.7
  4 N               -22.9      -7.3     -12.1      -1.5      -4.1     -10.8
  5 N                -0.8      -0.9      -3.2      -0.1       1.1       1.2
  9 H                -0.1      -0.3      -1.2      -0.0       0.1      -0.3
 10 H                 0.7      -0.0      -0.4      -0.0      -0.1      -0.5
 11 H               -34.8      -0.7      -1.6      -0.2      -2.8     -12.2
 13 H                 0.1      -0.2      -0.7      -0.0       0.1      -0.0

                     72        73        74        75        76        77   
                   0.00000   0.00000   0.00000   0.00000   0.00000   0.00000
                   0.00001   0.00000   0.00554   0.00225   0.00183   0.00037
                  --------  --------  --------  --------  --------  --------
  0 C                -0.0      -0.0      -0.1      -0.1      -0.0      -0.0
  1 C                 0.2      -0.0      -0.2      -0.8      -0.0      -0.0
  2 C                -5.3      -0.6       1.1       0.3       0.0      -0.0
  3 C               108.6     104.0     -13.7     -24.5      -3.2      -5.3
  4 N                -1.7      -0.7     115.0     167.7     104.2     110.5
  5 N                -0.0      -0.0      -1.1     -40.8      -1.0      -5.0
 10 H                -0.0      -0.0      -0.7      -0.1      -0.0       0.0
 11 H                -1.6      -2.6       0.0      -0.8      -0.0      -0.1
 12 H                -0.0      -0.0      -0.3       0.1      -0.0      -0.1
 13 H                -0.0      -0.0      -0.1      -0.9      -0.0      -0.0

                     78        79        80        81        82        83   
                   0.00000   0.00000   0.00000   0.00000   0.00000   0.00000
                   0.00034   0.00015   0.00002   0.00001   0.00000   0.00298
                  --------  --------  --------  --------  --------  --------
  0 C                -0.3      -0.1      -0.0       0.0      -0.0      -0.0
  1 C                -0.6       0.1      -0.1      -0.0      -0.0      -0.0
  2 C                -1.2       1.1       0.1       0.1      -0.0      -0.1
  3 C               -37.7     -20.0      -2.0      -2.2      -1.1      -0.9
  4 N               164.5     127.5     104.2     103.3     101.4      -2.6
  5 N               -24.2      -8.1      -1.8      -1.0      -0.3     106.3
 10 H                 0.1      -0.1      -0.0      -0.0      -0.0      -0.0
 11 H                -0.7      -0.1       0.0      -0.1      -0.0       0.0
 12 H                -0.4      -0.0      -0.2      -0.0      -0.0      -1.2
 13 H                 0.6      -0.3      -0.1      -0.1      -0.0      -1.4

                     84        85        86        87        88        89   
                   0.00000   0.00000   0.00000   0.00000   0.00000   0.00000
                   0.00251   0.00099   0.00026   0.00003   0.00001   0.00000
                  --------  --------  --------  --------  --------  --------
  1 C                -0.2      -0.0      -0.1      -0.0      -0.0      -0.0
  2 C                -0.9      -0.0      -0.3      -0.0      -0.1      -0.0
  3 C                -7.2      -2.1      -1.4      -0.1      -0.3       0.0
  4 N               -12.9     -21.5     -29.7      -8.2      -2.8      -2.1
  5 N               130.7     136.9     139.1     128.3     104.9     103.2
 11 H                 0.1       0.1      -0.3       0.0      -0.1      -0.0
 12 H                -3.0      -5.8      -2.8     -12.4      -1.3      -0.1
 13 H                -6.5      -7.5      -4.5      -7.5      -0.3      -1.0

                     90        91        92        93        94        95   
                   0.00000   0.00000   0.00000   0.00000   0.00000   0.00000
                   0.00000   0.00000   0.00197   0.00018   0.00014   0.00002
                  --------  --------  --------  --------  --------  --------
  0 C                -0.0      -0.0     -32.7      -2.9      -3.7      -7.9
  1 C                -0.0      -0.0      -0.9      -0.3       0.2      -0.1
  2 C                -0.0      -0.0       0.3      -0.1      -0.0      -0.0
  4 N                -1.8      -0.6       0.0      -0.0      -0.0      -0.0
  5 N               115.5     104.3       0.0      -0.0      -0.0      -0.0
  6 H                -0.0      -0.0     134.2     104.0     104.5     108.2
  7 H                -0.0      -0.0      -0.1      -0.4      -0.5      -0.1
  8 H                -0.0      -0.0      -0.4      -0.3      -0.4      -0.1
  9 H                -0.0      -0.0      -0.3      -0.0      -0.0      -0.0
 12 H                -8.3      -2.3      -0.0      -0.0      -0.0      -0.0
 13 H                -5.2      -1.4      -0.0      -0.0      -0.0      -0.0

                     96        97        98        99       100       101   
                   0.00000   0.00000   0.00000   0.00000   0.00000   0.00000
                   0.00191   0.00018   0.00015   0.00002   0.00182   0.00015
                  --------  --------  --------  --------  --------  --------
  0 C               -32.7      -2.8      -3.7      -7.8     -38.1      -3.0
  1 C                -0.9      -0.3       0.2      -0.1       2.4      -0.2
  2 C                 0.3      -0.1      -0.0      -0.0      -2.7      -0.0
  6 H                -0.1      -0.5      -0.4      -0.1      -0.5      -0.3
  7 H               134.1     103.9     104.4     108.1      -0.5      -0.3
  8 H                -0.4      -0.3      -0.5      -0.1     141.6     103.7
  9 H                -0.3      -0.0      -0.0      -0.0       0.1      -0.0
 10 H                 0.0      -0.0      -0.0      -0.0      -2.2      -0.0

                    102       103       104       105       106       107   
                   0.00000   0.00000   0.00000   0.00000   0.00000   0.00000
                   0.00012   0.00002   0.00297   0.00022   0.00008   0.00006
                  --------  --------  --------  --------  --------  --------
  0 C                -3.2      -8.0      -1.0      -0.1      -0.5      -0.3
  1 C                -0.0      -0.2     -40.2      -3.0      -4.4      -7.8
  2 C                -0.0      -0.1       0.9      -0.1      -0.9       0.2
  3 C                -0.0      -0.0      -2.3      -0.0       0.0      -0.0
  6 H                -0.4      -0.1      -0.3      -0.0      -0.0      -0.0
  7 H                -0.4      -0.1      -0.3      -0.0      -0.0      -0.0
  8 H               104.1     108.6       0.0      -0.0      -0.0      -0.0
  9 H                -0.0      -0.0     145.2     103.3     105.8     108.1
 10 H                -0.0      -0.1       0.1      -0.0      -0.0      -0.0
 11 H                -0.0      -0.0      -2.2      -0.0      -0.0      -0.1

                    108       109       110       111       112       113   
                   0.00000   0.00000   0.00000   0.00000   0.00000   0.00000
                   0.00364   0.00018   0.00007   0.00006   0.00560   0.00019
                  --------  --------  --------  --------  --------  --------
  0 C                -1.0      -0.0      -0.0      -0.0      -0.0      -0.0
  1 C                -0.7      -0.1      -0.8       0.2      -1.8      -0.0
  2 C               -42.2      -3.1      -4.2      -8.2       0.6      -0.1
  3 C                 0.1      -0.1      -0.5      -0.2     -41.2      -2.8
  4 N                -0.9      -0.0      -0.1      -0.0      -0.7      -0.1
  5 N                -0.0      -0.0      -0.1      -0.0      -0.3      -0.0
  8 H                -2.2      -0.0       0.0      -0.1      -0.0      -0.0
  9 H                 0.1      -0.0      -0.0       0.0      -2.3      -0.0
 10 H               146.7     103.3     105.7     108.4       0.1      -0.0
 11 H                 0.1      -0.0      -0.0      -0.0     148.3     103.0
 13 H                -0.0       0.0      -0.0      -0.0      -2.7      -0.0

                    114       115       116       117       118       119   
                   0.00000   0.00000   0.00000   0.00000   0.00000   0.00000
                   0.00008   0.00003   0.00137   0.00071   0.00011   0.00002
                  --------  --------  --------  --------  --------  --------
  2 C                -1.0       0.2      -0.0      -0.0      -0.0      -0.0
  3 C                -5.6      -5.5      -0.0      -0.0      -0.0      -0.0
  4 N                -0.1      -1.0      -0.8      -0.1      -0.5      -0.3
  5 N                -0.0      -0.0     -14.7      -3.4      -3.3      -5.4
 11 H               106.7     106.6       0.0      -0.0      -0.0      -0.0
 12 H                -0.0      -0.0     117.2     103.7     105.0     105.8
 13 H                -0.0      -0.0      -1.7      -0.2      -1.1       0.0

                    120       121       122       123   
                   0.00000   0.00000   0.00000   0.00000
                   0.00606   0.00069   0.00016   0.00003
                  --------  --------  --------  --------
  2 C                -0.1      -0.0      -0.0      -0.0
  3 C                -2.3      -0.0      -0.1       0.1
  4 N                 0.1      -0.1      -0.4      -0.5
  5 N               -14.9      -3.1      -3.1      -4.8
 11 H                -2.7      -0.0      -0.0      -0.0
 12 H                -1.4      -0.2      -1.1      -0.0
 13 H               121.3     103.4     104.8     105.3

Storing NBOs: 0458.nbo
                                    *** NBOs were stored ***

                                *** returned from GENNBO program ***

-------
TIMINGS
-------

Total SCF time: 0 days 0 hours 0 min 3 sec 

Total time                  ....       3.941 sec
Sum of individual times     ....       4.341 sec  (110.2%)

Fock matrix formation       ....       2.387 sec  ( 60.6%)
  Coulomb formation         ....       1.325 sec  ( 55.5% of F)
  Split-RI-J                ....       1.319 sec  ( 55.3% of F)
  XC integration            ....       1.059 sec  ( 44.4% of F)
    Basis function eval.    ....       0.367 sec  ( 34.6% of XC)
    Density eval.           ....       0.188 sec  ( 17.7% of XC)
    XC-Functional eval.     ....       0.080 sec  (  7.6% of XC)
    XC-Potential eval.      ....       0.378 sec  ( 35.7% of XC)
Diagonalization             ....       0.020 sec  (  0.5%)
Density matrix formation    ....       0.002 sec  (  0.0%)
Population analysis         ....       1.061 sec  ( 26.9%)
Initial guess               ....       0.300 sec  (  7.6%)
Orbital Transformation      ....       0.000 sec  (  0.0%)
Orbital Orthonormalization  ....       0.000 sec  (  0.0%)
DIIS solution               ....       0.005 sec  (  0.1%)
SOSCF solution              ....       0.006 sec  (  0.2%)
Grid generation             ....       0.560 sec  ( 14.2%)
           ************************************************************
           *              Shut down parallel processing               *
           ************************************************************

-------------------------   --------------------
FINAL SINGLE POINT ENERGY      -266.153291181731
-------------------------   --------------------


                            ***************************************
                            *     ORCA property calculations      *
                            ***************************************

                                    ---------------------
                                    Active property flags
                                    ---------------------
   (+) Dipole Moment


------------------------------------------------------------------------------
                       ORCA ELECTRIC PROPERTIES CALCULATION
------------------------------------------------------------------------------

Dipole Moment Calculation                       ... on
Quadrupole Moment Calculation                   ... off
Polarizability Calculation                      ... off
GBWName                                         ... 0458.gbw
Electron density file                           ... 0458.scfp.tmp

-------------
DIPOLE MOMENT
-------------
                                X             Y             Z
Electronic contribution:      5.05319       2.47526      -1.23988
Nuclear contribution   :     -4.30818      -2.70561       1.34306
                        -----------------------------------------
Total Dipole Moment    :      0.74500      -0.23035       0.10318
                        -----------------------------------------
Magnitude (a.u.)       :      0.78660
Magnitude (Debye)      :      1.99937


Timings for individual modules:

Sum of individual times         ...        5.042 sec (=   0.084 min)
GTO integral calculation        ...        0.471 sec (=   0.008 min)   9.3 %
SCF iterations                  ...        4.571 sec (=   0.076 min)  90.7 %
                             ****ORCA TERMINATED NORMALLY****
TOTAL RUN TIME: 0 days 0 hours 0 minutes 5 seconds 447 msec
