
                                 *****************
                                 * O   R   C   A *
                                 *****************

           --- An Ab Initio, DFT and Semiempirical electronic structure package ---

                  #######################################################
                  #                        -***-                        #
                  #  Department of molecular theory and spectroscopy    #
                  #              Directorship: Frank Neese              #
                  # Max Planck Institute for Chemical Energy Conversion #
                  #                  D-45470 Muelheim/Ruhr              #
                  #                       Germany                       #
                  #                                                     #
                  #                  All rights reserved                #
                  #                        -***-                        #
                  #######################################################


                         Program Version 3.0.3 - RELEASE   -


 With contributions from (in alphabetic order):
   Ute Becker             : Parallelization
   Dmytro Bykov           : SCF Hessian
   Dmitry Ganyushin       : Spin-Orbit,Spin-Spin,Magnetic field MRCI
   Andreas Hansen         : Spin unrestricted coupled pair/coupled cluster methods
   Dimitrios Liakos       : Extrapolation schemes; parallel MDCI
   Robert Izsak           : Overlap fitted RIJCOSX, COSX-SCS-MP3
   Christian Kollmar      : KDIIS, OOCD, Brueckner-CCSD(T), CCSD density
   Simone Kossmann        : Meta GGA functionals, TD-DFT gradient, OOMP2, MP2 Hessian
   Taras Petrenko         : DFT Hessian,TD-DFT gradient, ASA and ECA modules, normal mode analysis, Resonance Raman, ABS, FL, XAS/XES, NRVS
   Christoph Reimann      : Effective Core Potentials
   Michael Roemelt        : Restricted open shell CIS
   Christoph Riplinger    : Improved optimizer, TS searches, QM/MM, DLPNO-CCSD
   Barbara Sandhoefer     : DKH picture change effects
   Igor Schapiro          : Molecular dynamics
   Kantharuban Sivalingam : CASSCF convergence, NEVPT2
   Boris Wezisla          : Elementary symmetry handling
   Frank Wennmohs         : Technical directorship


 We gratefully acknowledge several colleagues who have allowed us to
 interface, adapt or use parts of their codes:
   Stefan Grimme, W. Hujo, H. Kruse, T. Risthaus : VdW corrections, initial TS optimization,
                                                   DFT functionals, gCP
   Ed Valeev                                     : LibInt (2-el integral package), F12 methods
   Garnet Chan, S. Sharma, R. Olivares           : DMRG
   Ulf Ekstrom                                   : XCFun DFT Library
   Mihaly Kallay                                 : mrcc  (arbitrary order and MRCC methods)
   Andreas Klamt, Michael Diedenhofen            : otool_cosmo (COSMO solvation model)
   Frank Weinhold                                : gennbo (NPA and NBO analysis)
   Christopher J. Cramer and Donald G. Truhlar   : smd solvation model


 Your calculation uses the libint2 library for the computation of 2-el integrals
 For citations please refer to: http://libint.valeyev.net

 This ORCA versions uses:
   CBLAS   interface :  Fast vector & matrix operations
   LAPACKE interface :  Fast linear algebra routines
   SCALAPACK package :  Parallel linear algebra routines


Your calculation utilizes the basis: Ahlrichs-VDZ
Cite in your paper:
H - Kr: A. Schaefer, H. Horn and R. Ahlrichs, J. Chem. Phys. 97, 2571 (1992).

Your calculation utilizes the basis: Ahlrichs SVPalls1+f
Cite in your paper:
Rb - Xe: A. Schaefer, C. Huber and R. Ahlrichs, J. Chem. Phys. 100, 5829 (1994).

================================================================================
                                        WARNINGS
                       Please study these warnings very carefully!
================================================================================
Now building the actual basis set


INFO   : the flag for use of LIBINT has been found!

================================================================================
                                       INPUT FILE
================================================================================
NAME = 0650.inp
|  1> ! RI PBE def2-SVP def2-SVP/J NBO PAL2
|  2> % maxcore 2000
|  3> % output
|  4>     # printlevel mini
|  5>     print[ P_Basis ] 0
|  6>     print[ P_SCFInfo ] 1
|  7>     print[ P_SCFIterInfo ] 1
|  8>     print[ P_OrbEn ] 0
|  9>     print[ P_Cartesian ] 0
| 10> end
| 11> *xyz 0 1
| 12>  C        0.7973970000     1.2807070000    -0.6148480000 
| 13>  C       -0.3528010000     1.0082660000     0.3197670000 
| 14>  C       -1.3989440000     0.0075340000    -0.1402870000 
| 15>  C       -0.7069490000    -1.3344140000     0.1078770000 
| 16>  O        0.6901980000    -1.0840270000     0.0233600000 
| 17>  C        0.9172590000     0.2316150000     0.4400350000 
| 18>  H        1.3466000000     2.2055780000    -0.4814660000 
| 19>  H        0.7126400000     0.9340990000    -1.6384670000 
| 20>  H       -0.6218830000     1.7620520000     1.0483250000 
| 21>  H       -1.6479250000     0.1407230000    -1.1965620000 
| 22>  H       -2.3228030000     0.0975020000     0.4340430000 
| 23>  H       -0.9545680000    -2.1020360000    -0.6276230000 
| 24>  H       -0.9553890000    -1.7169790000     1.1076010000 
| 25>  H        1.6085790000     0.3379890000     1.2688350000 
| 26> *
| 27> 
| 28>                          ****END OF INPUT****
================================================================================

                       ****************************
                       * Single Point Calculation *
                       ****************************

--------------------------------
INTERNAL COORDINATES (ANGSTROEM)
--------------------------------
 C      0   0   0   0.000000     0.000     0.000
 C      1   0   0   1.506879     0.000     0.000
 C      2   1   0   1.519055   117.189     0.000
 C      3   2   1   1.530120   102.544    77.678
 O      4   3   2   1.421920   106.278   333.093
 C      5   4   3   1.398602   107.906    30.201
 H      1   2   3   1.083882   117.692   159.145
 H      1   2   3   1.084028   117.916    13.463
 H      2   1   3   1.082310   118.774   204.152
 H      3   2   1   1.093365   111.664   318.181
 H      3   2   1   1.091542   111.668   197.412
 H      4   3   2   1.091567   113.883   214.493
 H      4   3   2   1.098875   110.526    92.092
 H      6   5   4   1.084504   115.052   122.881

---------------------------
INTERNAL COORDINATES (A.U.)
---------------------------
 C      0   0   0   0.000000     0.000     0.000
 C      1   0   0   2.847589     0.000     0.000
 C      2   1   0   2.870599   117.189     0.000
 C      3   2   1   2.891508   102.544    77.678
 O      4   3   2   2.687039   106.278   333.093
 C      5   4   3   2.642975   107.906    30.201
 H      1   2   3   2.048241   117.692   159.145
 H      1   2   3   2.048516   117.916    13.463
 H      2   1   3   2.045270   118.774   204.152
 H      3   2   1   2.066161   111.664   318.181
 H      3   2   1   2.062716   111.668   197.412
 H      4   3   2   2.062763   113.883   214.493
 H      4   3   2   2.076573   110.526    92.092
 H      6   5   4   2.049415   115.052   122.881



           ************************************************************
           *        Program running with 2 parallel MPI-processes     *
           *              working on a common directory               *
           ************************************************************
------------------------------------------------------------------------------
                           ORCA GTO INTEGRAL CALCULATION
                           -- RI-GTO INTEGRALS CHOSEN --
------------------------------------------------------------------------------

                         BASIS SET STATISTICS AND STARTUP INFO

Gaussian basis set:
 # of primitive gaussian shells          ...  112
 # of primitive gaussian functions       ...  200
 # of contracted shells                  ...   60
 # of contracted basis functions         ...  124
 Highest angular momentum                ...    2
 Maximum contraction depth               ...    5
Auxiliary gaussian basis set:
 # of primitive gaussian shells          ...  208
 # of primitive gaussian functions       ...  548
 # of contracted shells                  ...  130
 # of contracted aux-basis functions     ...  382
 Highest angular momentum                ...    4
 Maximum contraction depth               ...    7
Ratio of auxiliary to basis functions    ...  3.08
Integral package used                  ... LIBINT
 One Electron integrals                  ... done
 Ordering auxiliary basis shells         ... done
 Integral threshhold             Thresh  ...  1.000e-10
 Primitive cut-off               TCut    ...  1.000e-11
 Pre-screening matrix                    ... done
 Shell pair data                         ... 
 Ordering of the shell pairs             ... done (   0.000 sec) 1815 of 1830 pairs
 Determination of significant pairs      ... done (   0.000 sec)
 Creation of shell pair data             ... done (   0.000 sec)
 Storage of shell pair data              ... done (   0.000 sec)
 Shell pair data done in (   0.001 sec)
 Computing two index integrals           ... done
 Cholesky decomposition of the V-matrix  ... done


Timings:
 Total evaluation time                   ...   0.151 sec (  0.003 min)
 One electron matrix time                ...   0.015 sec (  0.000 min) =  9.9%
 Schwartz matrix evaluation time         ...   0.075 sec (  0.001 min) = 49.9%
 Two index repulsion integral time       ...   0.003 sec (  0.000 min) =  1.9%
 Cholesky decomposition of V             ...   0.002 sec (  0.000 min) =  1.5%
 Three index repulsion integral time     ...   0.000 sec (  0.000 min) =  0.0%

           ************************************************************
           *              Shut down parallel processing               *
           ************************************************************


           ************************************************************
           *        Program running with 2 parallel MPI-processes     *
           *              working on a common directory               *
           ************************************************************
-------------------------------------------------------------------------------
                                 ORCA SCF
-------------------------------------------------------------------------------

------------
SCF SETTINGS
------------
Hamiltonian:
 Density Functional     Method          .... DFT(GTOs)
 Exchange Functional    Exchange        .... PBE
   PBE kappa parameter  XKappa          ....  0.804000
 Correlation Functional Correlation     .... PBE
 LDA part of GGA corr.  LDAOpt          .... PW91-LDA
 Gradients option       PostSCFGGA      .... off
   NL short-range parameter             ....  6.400000
 RI-approximation to the Coulomb term is turned on
   Number of auxiliary basis functions  .... 382


General Settings:
 Integral files         IntName         .... 0650
 Hartree-Fock type      HFTyp           .... RHF
 Total Charge           Charge          ....    0
 Multiplicity           Mult            ....    1
 Number of Electrons    NEL             ....   46
 Basis Dimension        Dim             ....  124
 Nuclear Repulsion      ENuc            ....    248.4183459817 Eh

Convergence Acceleration:
 DIIS                   CNVDIIS         .... on
   Start iteration      DIISMaxIt       ....    12
   Startup error        DIISStart       ....  0.200000
   # of expansion vecs  DIISMaxEq       ....     5
   Bias factor          DIISBfac        ....   1.050
   Max. coefficient     DIISMaxC        ....  10.000
 Newton-Raphson         CNVNR           .... off
 SOSCF                  CNVSOSCF        .... on
   Start iteration      SOSCFMaxIt      ....   150
   Startup grad/error   SOSCFStart      ....  0.003300
 Level Shifting         CNVShift        .... on
   Level shift para.    LevelShift      ....    0.2500
   Turn off err/grad.   ShiftErr        ....    0.0010
 Zerner damping         CNVZerner       .... off
 Static damping         CNVDamp         .... on
   Fraction old density DampFac         ....    0.7000
   Max. Damping (<1)    DampMax         ....    0.9800
   Min. Damping (>=0)   DampMin         ....    0.0000
   Turn off err/grad.   DampErr         ....    0.1000
 Fernandez-Rico         CNVRico         .... off

SCF Procedure:
 Maximum # iterations   MaxIter         ....   125
 SCF integral mode      SCFMode         .... Direct
   Integral package                     .... LIBINT
 Reset frequeny         DirectResetFreq ....    20
 Integral Threshold     Thresh          ....  1.000e-10 Eh
 Primitive CutOff       TCut            ....  1.000e-11 Eh

Convergence Tolerance:
 Convergence Check Mode ConvCheckMode   .... Total+1el-Energy
 Energy Change          TolE            ....  1.000e-06 Eh
 1-El. energy change                    ....  1.000e-03 Eh
 Orbital Gradient       TolG            ....  5.000e-05
 Orbital Rotation angle TolX            ....  5.000e-05
 DIIS Error             TolErr          ....  1.000e-06


Diagonalization of the overlap matrix:
Smallest eigenvalue                        ... 9.668e-04
Time for diagonalization                   ...    0.009 sec
Threshold for overlap eigenvalues          ... 1.000e-08
Number of eigenvalues below threshold      ... 0
Time for construction of square roots      ...    0.003 sec
Total time needed                          ...    0.012 sec

-------------------
DFT GRID GENERATION
-------------------

General Integration Accuracy     IntAcc      ...  4.340
Radial Grid Type                 RadialGrid  ... Gauss-Chebyshev
Angular Grid (max. acc.)         AngularGrid ... Lebedev-110
Angular grid pruning method      GridPruning ... 3 (G Style)
Weight generation scheme         WeightScheme... Becke
Basis function cutoff            BFCut       ...    1.0000e-10
Integration weight cutoff        WCut        ...    1.0000e-14
Grids for H and He will be reduced by one unit

# of grid points (after initial pruning)     ...  16348 (   0.0 sec)
# of grid points (after weights+screening)   ...  15159 (   0.0 sec)
nearest neighbour list constructed           ...    0.0 sec
Grid point re-assignment to atoms done       ...    0.0 sec
Grid point division into batches done        ...    0.0 sec
Reduced shell lists constructed in    0.1 sec

Total number of grid points                  ...    15159
Total number of batches                      ...      244
Average number of points per batch           ...       62
Average number of grid points per atom       ...     1083
Average number of shells per batch           ...    50.76 (84.61%)
Average number of basis functions per batch  ...   105.79 (85.31%)
Average number of large shells per batch     ...    43.20 (85.11%)
Average number of large basis fcns per batch ...    88.80 (83.94%)
Maximum spatial batch extension              ...  17.41, 19.46, 19.49 au
Average spatial batch extension              ...   1.43,  1.44,  1.46 au

Time for grid setup =    0.120 sec

------------------------------
INITIAL GUESS: MODEL POTENTIAL
------------------------------
Loading Hartree-Fock densities                     ... done
Calculating cut-offs                               ... done
Setting up the integral package                    ... done
Initializing the effective Hamiltonian             ... done
Starting the Coulomb interaction                   ... done (   0.0 sec)
Reading the grid                                   ... done
Mapping shells                                     ... done
Starting the XC term evaluation                    ... done (   0.1 sec)
  promolecular density results
     # of electrons  =     46.000690568
     EX              =    -36.133036391
     EC              =     -1.531983407
     EX+EC           =    -37.665019798
Transforming the Hamiltonian                       ... done (   0.0 sec)
Diagonalizing the Hamiltonian                      ... done (   0.0 sec)
Back transforming the eigenvectors                 ... done (   0.0 sec)
Now organizing SCF variables                       ... done
                      ------------------
                      INITIAL GUESS DONE (   0.3 sec)
                      ------------------
--------------
SCF ITERATIONS
--------------
ITER       Energy         Delta-E        Max-DP      RMS-DP      [F,P]     Damp
               ***  Starting incremental Fock matrix formation  ***
  0   -269.8586532295   0.000000000000 0.06411108  0.00261724  0.1555359 0.7000
  1   -269.9165847722  -0.057931542731 0.03726738  0.00189618  0.0618267 0.7000
                               ***Turning on DIIS***
  2   -269.9375557214  -0.020970949154 0.05172507  0.00301150  0.0193916 0.0000
  3   -269.9686279100  -0.031072188592 0.02967806  0.00134788  0.0370416 0.0000
  4   -269.9778577020  -0.009229791983 0.00649422  0.00034966  0.0063414 0.0000
  5   -269.9782429710  -0.000385269052 0.00310272  0.00016243  0.0038414 0.0000
                      *** Initiating the SOSCF procedure ***
                           *** Shutting down DIIS ***
                      *** Re-Reading the Fockian *** 
                      *** Removing any level shift *** 
ITER      Energy       Delta-E        Grad      Rot      Max-DP    RMS-DP
  6   -269.97828037  -0.0000373959  0.000246  0.000246  0.001056  0.000054
               *** Restarting incremental Fock matrix formation ***
  7   -269.97828693  -0.0000065640  0.000113  0.000490  0.000766  0.000037
  8   -269.97828700  -0.0000000740  0.000098  0.000158  0.000294  0.000014
  9   -269.97828742  -0.0000004131  0.000037  0.000173  0.000277  0.000012
                 **** Energy Check signals convergence ****
              ***Rediagonalizing the Fockian in SOSCF/NRSCF***

               *****************************************************
               *                     SUCCESS                       *
               *           SCF CONVERGED AFTER  10 CYCLES          *
               *****************************************************

Setting up the final grid:

General Integration Accuracy     IntAcc      ...  4.670
Radial Grid Type                 RadialGrid  ... Gauss-Chebyshev
Angular Grid (max. acc.)         AngularGrid ... Lebedev-302
Angular grid pruning method      GridPruning ... 3 (G Style)
Weight generation scheme         WeightScheme... Becke
Basis function cutoff            BFCut       ...    1.0000e-10
Integration weight cutoff        WCut        ...    1.0000e-14
Grids for H and He will be reduced by one unit

# of grid points (after initial pruning)     ...  64424 (   0.0 sec)
# of grid points (after weights+screening)   ...  58835 (   0.1 sec)
nearest neighbour list constructed           ...    0.0 sec
Grid point re-assignment to atoms done       ...    0.0 sec
Grid point division into batches done        ...    0.2 sec
Reduced shell lists constructed in    0.4 sec

Total number of grid points                  ...    58835
Total number of batches                      ...      927
Average number of points per batch           ...       63
Average number of grid points per atom       ...     4202
Average number of shells per batch           ...    48.16 (80.27%)
Average number of basis functions per batch  ...    99.86 (80.53%)
Average number of large shells per batch     ...    40.00 (83.05%)
Average number of large basis fcns per batch ...    81.74 (81.85%)
Maximum spatial batch extension              ...  20.64, 19.47, 16.57 au
Average spatial batch extension              ...   1.01,  0.98,  0.98 au

Final grid set up in    0.4 sec
Final integration                            ... done (   0.3 sec)
Change in XC energy                          ...     0.000440566
Integrated number of electrons               ...    46.000066814
Previous integrated no of electrons          ...    46.003282297

----------------
TOTAL SCF ENERGY
----------------

Total Energy       :         -269.97784688 Eh           -7346.47070 eV

Components:
Nuclear Repulsion  :          248.41834598 Eh            6759.80686 eV
Electronic Energy  :         -518.39619286 Eh          -14106.27756 eV

One Electron Energy:         -857.32584586 Eh          -23329.02229 eV
Two Electron Energy:          338.92965300 Eh            9222.74473 eV

Virial components:
Potential Energy   :         -537.41941642 Eh          -14623.92579 eV
Kinetic Energy     :          267.44156954 Eh            7277.45509 eV
Virial Ratio       :            2.00948348


DFT components:
N(Alpha)           :       23.000033406837 electrons
N(Beta)            :       23.000033406837 electrons
N(Total)           :       46.000066813674 electrons
E(X)               :      -36.845276299798 Eh       
E(C)               :       -1.542477084259 Eh       
E(XC)              :      -38.387753384057 Eh       

---------------
SCF CONVERGENCE
---------------

  Last Energy change         ...   -2.6997e-08  Tolerance :   1.0000e-06
  Last MAX-Density change    ...    6.6066e-05  Tolerance :   1.0000e-05
  Last RMS-Density change    ...    2.9189e-06  Tolerance :   1.0000e-06
  Last Orbital Gradient      ...    1.7853e-05  Tolerance :   5.0000e-05
  Last Orbital Rotation      ...    2.8529e-05  Tolerance :   5.0000e-05

             **** THE GBW FILE WAS UPDATED (0650.gbw) ****
             **** DENSITY FILE WAS UPDATED (0650.scfp.tmp) ****
             **** ENERGY FILE WAS UPDATED (0650.en.tmp) ****

                    ********************************
                    * MULLIKEN POPULATION ANALYSIS *
                    ********************************

-----------------------
MULLIKEN ATOMIC CHARGES
-----------------------
   0 C :    0.027767
   1 C :   -0.180040
   2 C :    0.042199
   3 C :    0.212729
   4 O :   -0.328055
   5 C :    0.077062
   6 H :    0.028676
   7 H :    0.027648
   8 H :    0.023004
   9 H :    0.017917
  10 H :    0.014436
  11 H :    0.016010
  12 H :   -0.000726
  13 H :    0.021374
Sum of atomic charges:    0.0000000

--------------------------------
MULLIKEN REDUCED ORBITAL CHARGES
--------------------------------
  0 C s       :     3.041018  s :     3.041018
      pz      :     0.935580  p :     2.898577
      px      :     1.011435
      py      :     0.951562
      dz2     :     0.007891  d :     0.032638
      dxz     :     0.006572
      dyz     :     0.007359
      dx2y2   :     0.005012
      dxy     :     0.005803
  1 C s       :     3.190718  s :     3.190718
      pz      :     1.037488  p :     2.947586
      px      :     0.882923
      py      :     1.027175
      dz2     :     0.006086  d :     0.041736
      dxz     :     0.009490
      dyz     :     0.006884
      dx2y2   :     0.008949
      dxy     :     0.010327
  2 C s       :     2.965084  s :     2.965084
      pz      :     1.012970  p :     2.961040
      px      :     0.993200
      py      :     0.954869
      dz2     :     0.006988  d :     0.031678
      dxz     :     0.006463
      dyz     :     0.004858
      dx2y2   :     0.006770
      dxy     :     0.006598
  3 C s       :     2.972875  s :     2.972875
      pz      :     1.020623  p :     2.754830
      px      :     0.730607
      py      :     1.003599
      dz2     :     0.008982  d :     0.059566
      dxz     :     0.012624
      dyz     :     0.008850
      dx2y2   :     0.016460
      dxy     :     0.012651
  4 O s       :     3.769603  s :     3.769603
      pz      :     1.794778  p :     4.542048
      px      :     1.362973
      py      :     1.384297
      dz2     :     0.002071  d :     0.016404
      dxz     :     0.002261
      dyz     :     0.002883
      dx2y2   :     0.006314
      dxy     :     0.002875
  5 C s       :     3.103750  s :     3.103750
      pz      :     0.989153  p :     2.746806
      px      :     1.015638
      py      :     0.742015
      dz2     :     0.010359  d :     0.072382
      dxz     :     0.009518
      dyz     :     0.019532
      dx2y2   :     0.017636
      dxy     :     0.015337
  6 H s       :     0.947669  s :     0.947669
      pz      :     0.004221  p :     0.023655
      px      :     0.007778
      py      :     0.011656
  7 H s       :     0.948874  s :     0.948874
      pz      :     0.012881  p :     0.023478
      px      :     0.005043
      py      :     0.005554
  8 H s       :     0.954148  s :     0.954148
      pz      :     0.009453  p :     0.022848
      px      :     0.003875
      py      :     0.009521
  9 H s       :     0.959380  s :     0.959380
      pz      :     0.012924  p :     0.022703
      px      :     0.005306
      py      :     0.004473
 10 H s       :     0.962659  s :     0.962659
      pz      :     0.007420  p :     0.022906
      px      :     0.010989
      py      :     0.004497
 11 H s       :     0.962645  s :     0.962645
      pz      :     0.009263  p :     0.021345
      px      :     0.002938
      py      :     0.009144
 12 H s       :     0.979395  s :     0.979395
      pz      :     0.012251  p :     0.021331
      px      :     0.003302
      py      :     0.005778
 13 H s       :     0.956311  s :     0.956311
      pz      :     0.010773  p :     0.022315
      px      :     0.009279
      py      :     0.002262


                     *******************************
                     * LOEWDIN POPULATION ANALYSIS *
                     *******************************

----------------------
LOEWDIN ATOMIC CHARGES
----------------------
   0 C :   -0.050798
   1 C :   -0.055778
   2 C :   -0.044626
   3 C :    0.074543
   4 O :   -0.144968
   5 C :    0.043667
   6 H :    0.029237
   7 H :    0.027805
   8 H :    0.025238
   9 H :    0.026708
  10 H :    0.031266
  11 H :    0.018291
  12 H :    0.005619
  13 H :    0.013794

-------------------------------
LOEWDIN REDUCED ORBITAL CHARGES
-------------------------------
  0 C s       :     2.833794  s :     2.833794
      pz      :     1.007246  p :     3.128195
      px      :     1.071079
      py      :     1.049870
      dz2     :     0.023070  d :     0.088809
      dxz     :     0.016127
      dyz     :     0.020422
      dx2y2   :     0.013309
      dxy     :     0.015881
  1 C s       :     2.832598  s :     2.832598
      pz      :     1.088362  p :     3.116966
      px      :     0.960884
      py      :     1.067719
      dz2     :     0.012975  d :     0.106214
      dxz     :     0.023332
      dyz     :     0.018535
      dx2y2   :     0.020596
      dxy     :     0.030775
  2 C s       :     2.843614  s :     2.843614
      pz      :     1.067948  p :     3.115509
      px      :     1.031136
      py      :     1.016425
      dz2     :     0.020163  d :     0.085503
      dxz     :     0.017603
      dyz     :     0.010126
      dx2y2   :     0.016720
      dxy     :     0.020891
  3 C s       :     2.855642  s :     2.855642
      pz      :     1.079270  p :     2.932041
      px      :     0.817927
      py      :     1.034844
      dz2     :     0.022296  d :     0.137773
      dxz     :     0.026646
      dyz     :     0.022715
      dx2y2   :     0.037212
      dxy     :     0.028905
  4 O s       :     3.471239  s :     3.471239
      pz      :     1.797167  p :     4.643439
      px      :     1.408783
      py      :     1.437489
      dz2     :     0.003465  d :     0.030290
      dxz     :     0.003280
      dyz     :     0.004881
      dx2y2   :     0.013463
      dxy     :     0.005201
  5 C s       :     2.824107  s :     2.824107
      pz      :     1.058858  p :     2.963241
      px      :     1.068554
      py      :     0.835829
      dz2     :     0.022070  d :     0.168985
      dxz     :     0.023999
      dyz     :     0.047089
      dx2y2   :     0.042294
      dxy     :     0.033534
  6 H s       :     0.899384  s :     0.899384
      pz      :     0.012146  p :     0.071379
      px      :     0.023465
      py      :     0.035768
  7 H s       :     0.900669  s :     0.900669
      pz      :     0.039700  p :     0.071525
      px      :     0.015716
      py      :     0.016109
  8 H s       :     0.901827  s :     0.901827
      pz      :     0.029141  p :     0.072934
      px      :     0.014296
      py      :     0.029498
  9 H s       :     0.905248  s :     0.905248
      pz      :     0.039473  p :     0.068044
      px      :     0.014510
      py      :     0.014060
 10 H s       :     0.900601  s :     0.900601
      pz      :     0.021050  p :     0.068134
      px      :     0.032999
      py      :     0.014084
 11 H s       :     0.916453  s :     0.916453
      pz      :     0.026889  p :     0.065255
      px      :     0.010272
      py      :     0.028095
 12 H s       :     0.928036  s :     0.928036
      pz      :     0.038012  p :     0.066345
      px      :     0.011394
      py      :     0.016939
 13 H s       :     0.914493  s :     0.914493
      pz      :     0.033867  p :     0.071713
      px      :     0.028524
      py      :     0.009322


                      *****************************
                      * MAYER POPULATION ANALYSIS *
                      *****************************

  NA   - Mulliken gross atomic population
  ZA   - Total nuclear charge
  QA   - Mulliken gross atomic charge
  VA   - Mayer's total valence
  BVA  - Mayer's bonded valence
  FA   - Mayer's free valence

  ATOM       NA         ZA         QA         VA         BVA        FA
  0 C      5.9722     6.0000     0.0278     3.8235     3.8235    -0.0000
  1 C      6.1800     6.0000    -0.1800     4.0594     4.0594    -0.0000
  2 C      5.9578     6.0000     0.0422     4.0790     4.0790    -0.0000
  3 C      5.7873     6.0000     0.2127     4.0186     4.0186    -0.0000
  4 O      8.3281     8.0000    -0.3281     2.1518     2.1518     0.0000
  5 C      5.9229     6.0000     0.0771     4.0466     4.0466     0.0000
  6 H      0.9713     1.0000     0.0287     0.9810     0.9810     0.0000
  7 H      0.9724     1.0000     0.0276     1.0025     1.0025    -0.0000
  8 H      0.9770     1.0000     0.0230     0.9850     0.9850    -0.0000
  9 H      0.9821     1.0000     0.0179     0.9818     0.9818    -0.0000
 10 H      0.9856     1.0000     0.0144     0.9781     0.9781     0.0000
 11 H      0.9840     1.0000     0.0160     0.9790     0.9790     0.0000
 12 H      1.0007     1.0000    -0.0007     0.9738     0.9738    -0.0000
 13 H      0.9786     1.0000     0.0214     0.9860     0.9860     0.0000

  Mayer bond orders larger than 0.1
B(  0-C ,  1-C ) :   0.9728 B(  0-C ,  5-C ) :   0.9861 B(  0-C ,  6-H ) :   0.9356 
B(  0-C ,  7-H ) :   0.9272 B(  1-C ,  2-C ) :   1.0966 B(  1-C ,  5-C ) :   0.9611 
B(  1-C ,  8-H ) :   0.9501 B(  2-C ,  3-C ) :   1.1033 B(  2-C ,  9-H ) :   0.9146 
B(  2-C , 10-H ) :   0.9304 B(  3-C ,  4-O ) :   0.9941 B(  3-C , 11-H ) :   0.9444 
B(  3-C , 12-H ) :   0.9327 B(  4-O ,  5-C ) :   1.0602 B(  5-C , 13-H ) :   0.9486 



 *********************************** NBO 6.0 ***********************************
             N A T U R A L   A T O M I C   O R B I T A L   A N D
          N A T U R A L   B O N D   O R B I T A L   A N A L Y S I S
 ***************************** Kiya KiyaLu (100703) ****************************
  (c) Copyright 1996-2015 Board of Regents of the University of Wisconsin System
      on behalf of the Theoretical Chemistry Institute.  All rights reserved.

          Cite this program as:

          NBO 6.0.  E. D. Glendening, J. K. Badenhoop, A. E. Reed,
          J. E. Carpenter, J. A. Bohmann, C. M. Morales, C. R. Landis,
          and F. Weinhold (Theoretical Chemistry Institute, University
          of Wisconsin, Madison, WI, 2013); http://nbo6.chem.wisc.edu/

       /NPA    / : Natural Population Analysis
       /NBO    / : Natural Bond Orbital Analysis
       /AONBO  / : Write the AO to NBO transformation to lfn77
       /FILE   / : Set to 0650

 Filename set to 0650

 Job title:  *** NBO job generated by orca_scf

 Warning: MOs are non-orthogonal; program will continue

 Warning: -2394.19924 electrons reside outside the linearly independent MO space


 NATURAL POPULATIONS:  Natural atomic orbital occupancies

  NAO Atom No lang   Type(AO)    Occupancy      Energy
 -------------------------------------------------------
   1    C  1  s      Cor( 1s)     1.99904      -9.77577
   2    C  1  s      Val( 2s)     1.01566      -0.18949
   3    C  1  s      Ryd( 3s)     0.00112       0.71692
   4    C  1  px     Val( 2p)     1.13017      -0.07687
   5    C  1  px     Ryd( 3p)     0.00224       0.53674
   6    C  1  py     Val( 2p)     1.17065      -0.06606
   7    C  1  py     Ryd( 3p)     0.00385       0.65517
   8    C  1  pz     Val( 2p)     1.12874      -0.06078
   9    C  1  pz     Ryd( 3p)     0.00375       0.58875
  10    C  1  dxy    Ryd( 3d)     0.00066       2.11018
  11    C  1  dxz    Ryd( 3d)     0.00084       2.09762
  12    C  1  dyz    Ryd( 3d)     0.00100       2.24135
  13    C  1  dx2y2  Ryd( 3d)     0.00050       2.09593
  14    C  1  dz2    Ryd( 3d)     0.00082       2.28463

  15    C  2  s      Cor( 1s)     1.99894      -9.78255
  16    C  2  s      Val( 2s)     0.93632      -0.17099
  17    C  2  s      Ryd( 3s)     0.00178       0.75350
  18    C  2  px     Val( 2p)     0.98601      -0.07841
  19    C  2  px     Ryd( 3p)     0.00448       0.54784
  20    C  2  py     Val( 2p)     1.16981      -0.07291
  21    C  2  py     Ryd( 3p)     0.00377       0.69355
  22    C  2  pz     Val( 2p)     1.16953      -0.07789
  23    C  2  pz     Ryd( 3p)     0.00267       0.70513
  24    C  2  dxy    Ryd( 3d)     0.00087       2.23492
  25    C  2  dxz    Ryd( 3d)     0.00101       2.13427
  26    C  2  dyz    Ryd( 3d)     0.00075       2.17447
  27    C  2  dx2y2  Ryd( 3d)     0.00107       2.08076
  28    C  2  dz2    Ryd( 3d)     0.00069       2.05340

  29    C  3  s      Cor( 1s)     1.99909      -9.77720
  30    C  3  s      Val( 2s)     1.03048      -0.20273
  31    C  3  s      Ryd( 3s)     0.00082       0.90207
  32    C  3  px     Val( 2p)     1.16625      -0.07022
  33    C  3  px     Ryd( 3p)     0.00388       0.59048
  34    C  3  py     Val( 2p)     1.04969      -0.08291
  35    C  3  py     Ryd( 3p)     0.00175       0.51932
  36    C  3  pz     Val( 2p)     1.22878      -0.06976
  37    C  3  pz     Ryd( 3p)     0.00383       0.75642
  38    C  3  dxy    Ryd( 3d)     0.00052       2.16159
  39    C  3  dxz    Ryd( 3d)     0.00064       2.27393
  40    C  3  dyz    Ryd( 3d)     0.00046       2.02970
  41    C  3  dx2y2  Ryd( 3d)     0.00062       2.13504
  42    C  3  dz2    Ryd( 3d)     0.00064       2.32391

  43    C  4  s      Cor( 1s)     1.99910      -9.82964
  44    C  4  s      Val( 2s)     1.01232      -0.20432
  45    C  4  s      Ryd( 3s)     0.00147       0.80297
  46    C  4  px     Val( 2p)     0.72332      -0.06418
  47    C  4  px     Ryd( 3p)     0.00514       0.49732
  48    C  4  py     Val( 2p)     1.10778      -0.06776
  49    C  4  py     Ryd( 3p)     0.00308       0.52038
  50    C  4  pz     Val( 2p)     1.20954      -0.06866
  51    C  4  pz     Ryd( 3p)     0.00238       0.71491
  52    C  4  dxy    Ryd( 3d)     0.00129       2.09312
  53    C  4  dxz    Ryd( 3d)     0.00151       2.03085
  54    C  4  dyz    Ryd( 3d)     0.00078       2.29900
  55    C  4  dx2y2  Ryd( 3d)     0.00158       2.16470
  56    C  4  dz2    Ryd( 3d)     0.00093       2.24340

  57    O  5  s      Cor( 1s)     1.99971     -18.55230
  58    O  5  s      Val( 2s)     1.60414      -0.75779
  59    O  5  s      Ryd( 3s)     0.00048       1.52344
  60    O  5  px     Val( 2p)     1.52838      -0.25477
  61    O  5  px     Ryd( 3p)     0.00136       1.24742
  62    O  5  py     Val( 2p)     1.56718      -0.25554
  63    O  5  py     Ryd( 3p)     0.00172       1.23631
  64    O  5  pz     Val( 2p)     1.87228      -0.23039
  65    O  5  pz     Ryd( 3p)     0.00237       1.16316
  66    O  5  dxy    Ryd( 3d)     0.00106       2.75457
  67    O  5  dxz    Ryd( 3d)     0.00077       2.68194
  68    O  5  dyz    Ryd( 3d)     0.00089       2.76427
  69    O  5  dx2y2  Ryd( 3d)     0.00145       3.09031
  70    O  5  dz2    Ryd( 3d)     0.00083       2.80932

  71    C  6  s      Cor( 1s)     1.99880      -9.82885
  72    C  6  s      Val( 2s)     0.89000      -0.16323
  73    C  6  s      Ryd( 3s)     0.00240       0.71922
  74    C  6  px     Val( 2p)     1.12895      -0.07716
  75    C  6  px     Ryd( 3p)     0.00401       0.62823
  76    C  6  py     Val( 2p)     0.73266      -0.05307
  77    C  6  py     Ryd( 3p)     0.00722       0.52693
  78    C  6  pz     Val( 2p)     1.11900      -0.07149
  79    C  6  pz     Ryd( 3p)     0.00244       0.67349
  80    C  6  dxy    Ryd( 3d)     0.00173       2.08342
  81    C  6  dxz    Ryd( 3d)     0.00107       2.14996
  82    C  6  dyz    Ryd( 3d)     0.00216       2.13834
  83    C  6  dx2y2  Ryd( 3d)     0.00158       2.17354
  84    C  6  dz2    Ryd( 3d)     0.00116       2.10078

  85    H  7  s      Val( 1s)     0.76603       0.07834
  86    H  7  s      Ryd( 2s)     0.00220       0.31411
  87    H  7  px     Ryd( 2p)     0.00037       1.84846
  88    H  7  py     Ryd( 2p)     0.00066       2.16666
  89    H  7  pz     Ryd( 2p)     0.00010       1.80436

  90    H  8  s      Val( 1s)     0.76672       0.07904
  91    H  8  s      Ryd( 2s)     0.00343       0.33708
  92    H  8  px     Ryd( 2p)     0.00014       1.68508
  93    H  8  py     Ryd( 2p)     0.00024       1.81513
  94    H  8  pz     Ryd( 2p)     0.00078       2.28378

  95    H  9  s      Val( 1s)     0.75578       0.09275
  96    H  9  s      Ryd( 2s)     0.00191       0.30278
  97    H  9  px     Ryd( 2p)     0.00009       1.85401
  98    H  9  py     Ryd( 2p)     0.00051       2.03034
  99    H  9  pz     Ryd( 2p)     0.00054       1.98144

 100    H 10  s      Val( 1s)     0.76993       0.07208
 101    H 10  s      Ryd( 2s)     0.00339       0.34042
 102    H 10  px     Ryd( 2p)     0.00014       1.81737
 103    H 10  py     Ryd( 2p)     0.00012       1.71089
 104    H 10  pz     Ryd( 2p)     0.00086       2.25120

 105    H 11  s      Val( 1s)     0.75677       0.07214
 106    H 11  s      Ryd( 2s)     0.00241       0.32045
 107    H 11  px     Ryd( 2p)     0.00063       2.15418
 108    H 11  py     Ryd( 2p)     0.00014       1.69394
 109    H 11  pz     Ryd( 2p)     0.00034       1.92426

 110    H 12  s      Val( 1s)     0.78651       0.07142
 111    H 12  s      Ryd( 2s)     0.00193       0.30682
 112    H 12  px     Ryd( 2p)     0.00012       1.72511
 113    H 12  py     Ryd( 2p)     0.00053       2.01721
 114    H 12  pz     Ryd( 2p)     0.00052       1.99746

 115    H 13  s      Val( 1s)     0.81153       0.05829
 116    H 13  s      Ryd( 2s)     0.00405       0.32250
 117    H 13  px     Ryd( 2p)     0.00017       1.72101
 118    H 13  py     Ryd( 2p)     0.00021       1.83959
 119    H 13  pz     Ryd( 2p)     0.00087       2.17524

 120    H 14  s      Val( 1s)     0.78536       0.08401
 121    H 14  s      Ryd( 2s)     0.00256       0.29776
 122    H 14  px     Ryd( 2p)     0.00050       1.97213
 123    H 14  py     Ryd( 2p)     0.00008       1.82178
 124    H 14  pz     Ryd( 2p)     0.00066       2.05897

   1 low occupancy (<1.9990e) core orbital  found on  C  2
   1 low occupancy (<1.9990e) core orbital  found on  C  6


 Summary of Natural Population Analysis:

                                     Natural Population
             Natural    ---------------------------------------------
  Atom No    Charge        Core      Valence    Rydberg      Total
 --------------------------------------------------------------------
    C  1   -0.45905      1.99904     4.44522    0.01479     6.45905
    C  2   -0.27769      1.99894     4.26168    0.01707     6.27769
    C  3   -0.48745      1.99909     4.47520    0.01316     6.48745
    C  4   -0.07021      1.99910     4.05295    0.01815     6.07021
    O  5   -0.58262      1.99971     6.57197    0.01094     8.58262
    C  6    0.10684      1.99880     3.87060    0.02376     5.89316
    H  7    0.23063      0.00000     0.76603    0.00334     0.76937
    H  8    0.22868      0.00000     0.76672    0.00459     0.77132
    H  9    0.24118      0.00000     0.75578    0.00304     0.75882
    H 10    0.22556      0.00000     0.76993    0.00452     0.77444
    H 11    0.23972      0.00000     0.75677    0.00352     0.76028
    H 12    0.21040      0.00000     0.78651    0.00309     0.78960
    H 13    0.18317      0.00000     0.81153    0.00530     0.81683
    H 14    0.21084      0.00000     0.78536    0.00380     0.78916
 ====================================================================
 * Total *  0.00000     11.99469    33.87625    0.12907    46.00000

                                 Natural Population
 ---------------------------------------------------------
   Core                      11.99469 ( 99.9557% of   12)
   Valence                   33.87625 ( 99.6360% of   34)
   Natural Minimal Basis     45.87093 ( 99.7194% of   46)
   Natural Rydberg Basis      0.12907 (  0.2806% of   46)
 ---------------------------------------------------------

    Atom No         Natural Electron Configuration
 ----------------------------------------------------------------------------
      C  1      [core]2s( 1.02)2p( 3.43)3p( 0.01)
      C  2      [core]2s( 0.94)2p( 3.33)3p( 0.01)
      C  3      [core]2s( 1.03)2p( 3.44)3p( 0.01)
      C  4      [core]2s( 1.01)2p( 3.04)3p( 0.01)3d( 0.01)
      O  5      [core]2s( 1.60)2p( 4.97)3p( 0.01)3d( 0.01)
      C  6      [core]2s( 0.89)2p( 2.98)3p( 0.01)3d( 0.01)
      H  7            1s( 0.77)
      H  8            1s( 0.77)
      H  9            1s( 0.76)
      H 10            1s( 0.77)
      H 11            1s( 0.76)
      H 12            1s( 0.79)
      H 13            1s( 0.81)
      H 14            1s( 0.79)


 NATURAL BOND ORBITAL ANALYSIS:

                            Occupancies       Lewis Structure    Low   High
         Max    Occ     -------------------  -----------------   occ   occ
  Cycle  Ctr   Thresh    Lewis   non-Lewis     CR  BD  nC  LP    (L)   (NL)
 ============================================================================
    1     2     1.90    45.51037   0.48963      6  15   0   2     0      0
 ----------------------------------------------------------------------------

 Structure accepted: No low occupancy Lewis orbitals

 -------------------------------------------------------
   Core                     11.99469 ( 99.956% of  12)
   Valence Lewis            33.51568 ( 98.576% of  34)
  ==================      =============================
   Total Lewis              45.51037 ( 98.936% of  46)
  -----------------------------------------------------
   Valence non-Lewis         0.40285 (  0.876% of  46)
   Rydberg non-Lewis         0.08678 (  0.189% of  46)
  ==================      =============================
   Total non-Lewis           0.48963 (  1.064% of  46)
 -------------------------------------------------------


     (Occupancy)   Bond orbital / Coefficients / Hybrids
 ------------------ Lewis ------------------------------------------------------
   1. (1.99904) CR ( 1) C  1            s(100.00%)
                                         1.0000  0.0000  0.0000  0.0000  0.0000
                                         0.0000  0.0000  0.0000  0.0000  0.0000
                                         0.0000  0.0000  0.0000  0.0000
   2. (1.99894) CR ( 1) C  2            s(100.00%)
                                         1.0000  0.0000  0.0000  0.0000  0.0000
                                         0.0000  0.0000  0.0000  0.0000  0.0000
                                         0.0000  0.0000  0.0000  0.0000
   3. (1.99909) CR ( 1) C  3            s(100.00%)
                                         1.0000  0.0000  0.0000  0.0000  0.0000
                                         0.0000  0.0000  0.0000  0.0000  0.0000
                                         0.0000  0.0000  0.0000  0.0000
   4. (1.99910) CR ( 1) C  4            s(100.00%)
                                         1.0000  0.0000  0.0000  0.0000  0.0000
                                         0.0000  0.0000  0.0000  0.0000  0.0000
                                         0.0000  0.0000  0.0000  0.0000
   5. (1.99971) CR ( 1) O  5            s(100.00%)
                                         1.0000  0.0000  0.0000  0.0000  0.0000
                                         0.0000  0.0000  0.0000  0.0000  0.0000
                                         0.0000  0.0000  0.0000  0.0000
   6. (1.99880) CR ( 1) C  6            s(100.00%)
                                         1.0000  0.0000  0.0000  0.0000  0.0000
                                         0.0000  0.0000  0.0000  0.0000  0.0000
                                         0.0000  0.0000  0.0000  0.0000
   7. (1.95920) LP ( 1) O  5            s( 40.95%)p 1.44( 59.00%)d 0.00(  0.04%)
                                         0.0000  0.6399 -0.0052  0.5255 -0.0045
                                        -0.5048  0.0033 -0.2430  0.0028  0.0177
                                         0.0075 -0.0062 -0.0006  0.0042
   8. (1.91059) LP ( 2) O  5            s(  0.03%)p99.99( 99.90%)d 1.76(  0.06%)
                                         0.0000  0.0179 -0.0054 -0.1295  0.0015
                                         0.3366 -0.0033 -0.9321  0.0071 -0.0078
                                         0.0150 -0.0129 -0.0033 -0.0123
   9. (1.94729) BD ( 1) C  1- C  2
               ( 49.26%)   0.7018* C  1 s( 22.44%)p 3.45( 77.48%)d 0.00(  0.08%)
                                         0.0000  0.4737 -0.0008 -0.8075  0.0075
                                         0.0987  0.0211  0.3352 -0.0099  0.0078
                                        -0.0226 -0.0057  0.0122  0.0023
               ( 50.74%)   0.7123* C  2 s( 21.90%)p 3.56( 78.03%)d 0.00(  0.07%)
                                         0.0000  0.4680  0.0061  0.4064 -0.0067
                                         0.3882  0.0291 -0.6807  0.0139  0.0049
                                        -0.0216 -0.0024  0.0132  0.0026
  10. (1.95673) BD ( 1) C  1- C  6
               ( 50.50%)   0.7106* C  1 s( 22.62%)p 3.42( 77.31%)d 0.00(  0.07%)
                                         0.0000  0.4756  0.0032  0.3953  0.0146
                                        -0.6323  0.0024  0.4656 -0.0106 -0.0016
                                         0.0025 -0.0229 -0.0113  0.0065
               ( 49.50%)   0.7036* C  6 s( 24.07%)p 3.15( 75.85%)d 0.00(  0.07%)
                                         0.0000  0.4906  0.0075  0.2698  0.0270
                                         0.4559 -0.0027 -0.6907  0.0123 -0.0046
                                         0.0033 -0.0234 -0.0095  0.0081
  11. (1.98009) BD ( 1) C  1- H  7
               ( 61.69%)   0.7854* C  1 s( 27.51%)p 2.63( 72.46%)d 0.00(  0.03%)
                                         0.0000  0.5245 -0.0004  0.4322  0.0002
                                         0.7279 -0.0018  0.0856 -0.0246  0.0125
                                         0.0046  0.0079 -0.0076 -0.0053
               ( 38.31%)   0.6189* H  7 s( 99.90%)p 0.00(  0.10%)
                                         0.9995 -0.0032 -0.0163 -0.0267 -0.0024
  12. (1.98400) BD ( 1) C  1- H  8
               ( 61.83%)   0.7863* C  1 s( 27.26%)p 2.67( 72.71%)d 0.00(  0.03%)
                                         0.0000  0.5221 -0.0047 -0.0609  0.0158
                                        -0.2446  0.0220 -0.8141 -0.0059  0.0037
                                         0.0041  0.0116 -0.0037  0.0106
               ( 38.17%)   0.6179* H  8 s( 99.89%)p 0.00(  0.11%)
                                         0.9995 -0.0047  0.0010  0.0103  0.0310
  13. (1.96902) BD ( 1) C  2- C  3
               ( 50.18%)   0.7084* C  2 s( 29.67%)p 2.37( 70.29%)d 0.00(  0.04%)
                                         0.0000  0.5447 -0.0064 -0.6334 -0.0351
                                        -0.4742  0.0323 -0.2722  0.0219  0.0127
                                         0.0043  0.0109 -0.0052 -0.0077
               ( 49.82%)   0.7058* C  3 s( 27.42%)p 2.65( 72.54%)d 0.00(  0.04%)
                                         0.0000  0.5237 -0.0012  0.5407 -0.0194
                                         0.6116  0.0201  0.2414 -0.0004  0.0131
                                         0.0084  0.0071  0.0027 -0.0079
  14. (1.94726) BD ( 1) C  2- C  6
               ( 50.99%)   0.7141* C  2 s( 19.86%)p 4.03( 80.07%)d 0.00(  0.07%)
                                         0.0000  0.4456 -0.0090  0.6174 -0.0012
                                        -0.5262  0.0250  0.3762  0.0227 -0.0192
                                         0.0041 -0.0044  0.0090 -0.0145
               ( 49.01%)   0.7001* C  6 s( 23.05%)p 3.34( 76.88%)d 0.00(  0.07%)
                                         0.0000  0.4795 -0.0230 -0.7893  0.0326
                                         0.2997  0.0173  0.2316  0.0318 -0.0193
                                         0.0015 -0.0029  0.0110 -0.0154
  15. (1.98069) BD ( 1) C  2- H  9
               ( 62.53%)   0.7908* C  2 s( 28.25%)p 2.54( 71.72%)d 0.00(  0.02%)
                                         0.0000  0.5315  0.0017 -0.2263 -0.0073
                                         0.5883 -0.0037  0.5656 -0.0059 -0.0008
                                        -0.0013  0.0135 -0.0051  0.0034
               ( 37.47%)   0.6121* H  9 s( 99.89%)p 0.00(  0.11%)
                                         0.9995 -0.0042  0.0083 -0.0228 -0.0221
  16. (1.98690) BD ( 1) C  3- C  4
               ( 51.08%)   0.7147* C  3 s( 26.51%)p 2.77( 73.45%)d 0.00(  0.04%)
                                         0.0000  0.5149  0.0031  0.3319 -0.0198
                                        -0.7808 -0.0172  0.1184 -0.0034 -0.0150
                                         0.0036 -0.0051 -0.0076 -0.0101
               ( 48.92%)   0.6994* C  4 s( 29.99%)p 2.33( 69.97%)d 0.00(  0.04%)
                                         0.0000  0.5475 -0.0087 -0.4057 -0.0246
                                         0.7147 -0.0195 -0.1523 -0.0093 -0.0126
                                         0.0027 -0.0061 -0.0120 -0.0097
  17. (1.98140) BD ( 1) C  3- H 10
               ( 61.70%)   0.7855* C  3 s( 22.94%)p 3.36( 77.03%)d 0.00(  0.03%)
                                         0.0000  0.4789 -0.0036 -0.2011 -0.0191
                                         0.1020  0.0018 -0.8479  0.0100 -0.0004
                                         0.0045 -0.0032  0.0006  0.0167
               ( 38.30%)   0.6189* H 10 s( 99.89%)p 0.00(  0.11%)
                                         0.9994 -0.0052  0.0085 -0.0048  0.0318
  18. (1.97676) BD ( 1) C  3- H 11
               ( 62.06%)   0.7878* C  3 s( 23.03%)p 3.34( 76.94%)d 0.00(  0.03%)
                                         0.0000  0.4799  0.0030 -0.7459 -0.0028
                                         0.0685  0.0011  0.4560 -0.0171 -0.0008
                                        -0.0149  0.0011  0.0099 -0.0003
               ( 37.94%)   0.6160* H 11 s( 99.90%)p 0.00(  0.10%)
                                         0.9995 -0.0025  0.0276 -0.0037 -0.0161
  19. (1.98884) BD ( 1) C  4- O  5
               ( 32.17%)   0.5672* C  4 s( 20.10%)p 3.96( 79.66%)d 0.01(  0.23%)
                                         0.0000  0.4480  0.0192  0.8774  0.0460
                                         0.1466 -0.0305 -0.0456 -0.0118  0.0171
                                        -0.0040 -0.0016  0.0372 -0.0253
               ( 67.83%)   0.8236* O  5 s( 28.52%)p 2.50( 71.39%)d 0.00(  0.09%)
                                         0.0000  0.5341  0.0043 -0.8188 -0.0051
                                        -0.2006 -0.0229  0.0516 -0.0035 -0.0028
                                        -0.0073  0.0015  0.0239 -0.0149
  20. (1.98340) BD ( 1) C  4- H 12
               ( 60.84%)   0.7800* C  4 s( 25.04%)p 2.99( 74.92%)d 0.00(  0.04%)
                                         0.0000  0.5003  0.0091 -0.1838  0.0139
                                        -0.6112  0.0029 -0.5844  0.0144  0.0032
                                         0.0054  0.0163 -0.0086  0.0054
               ( 39.16%)   0.6258* H 12 s( 99.89%)p 0.00(  0.11%)
                                         0.9995 -0.0034  0.0070  0.0237  0.0217
  21. (1.98818) BD ( 1) C  4- H 13
               ( 60.11%)   0.7753* C  4 s( 24.80%)p 3.03( 75.16%)d 0.00(  0.04%)
                                         0.0000  0.4978 -0.0108 -0.1621  0.0022
                                        -0.3046 -0.0176  0.7951 -0.0119  0.0016
                                        -0.0070 -0.0091 -0.0021  0.0163
               ( 39.89%)   0.6316* H 13 s( 99.89%)p 0.00(  0.11%)
                                         0.9994 -0.0087  0.0060  0.0126 -0.0303
  22. (1.98913) BD ( 1) O  5- C  6
               ( 67.44%)   0.8212* O  5 s( 30.47%)p 2.28( 69.45%)d 0.00(  0.08%)
                                         0.0000  0.5519  0.0065  0.1876  0.0209
                                         0.7683  0.0062  0.2619  0.0015 -0.0029
                                        -0.0018  0.0162 -0.0209 -0.0110
               ( 32.56%)   0.5706* C  6 s( 22.31%)p 3.47( 77.47%)d 0.01(  0.21%)
                                         0.0000  0.4721  0.0160 -0.1051  0.0354
                                        -0.8338 -0.0465 -0.2550  0.0024  0.0184
                                         0.0066  0.0238 -0.0303 -0.0168
  23. (1.98621) BD ( 1) C  6- H 14
               ( 61.50%)   0.7842* C  6 s( 30.32%)p 2.30( 69.65%)d 0.00(  0.03%)
                                         0.0000  0.5507 -0.0022  0.5389 -0.0045
                                         0.0507 -0.0221  0.6348 -0.0087  0.0019
                                         0.0125  0.0039  0.0051  0.0070
               ( 38.50%)   0.6204* H 14 s( 99.89%)p 0.00(  0.11%)
                                         0.9994 -0.0075 -0.0215 -0.0033 -0.0256
 ---------------- non-Lewis ----------------------------------------------------
  24. (0.03474) BD*( 1) C  1- C  2
               ( 50.74%)   0.7123* C  1 s( 22.44%)p 3.45( 77.48%)d 0.00(  0.08%)
                                         0.0000  0.4737 -0.0008 -0.8075  0.0075
                                         0.0987  0.0211  0.3352 -0.0099  0.0078
                                        -0.0226 -0.0057  0.0122  0.0023
               ( 49.26%)  -0.7018* C  2 s( 21.90%)p 3.56( 78.03%)d 0.00(  0.07%)
                                         0.0000  0.4680  0.0061  0.4064 -0.0067
                                         0.3882  0.0291 -0.6807  0.0139  0.0049
                                        -0.0216 -0.0024  0.0132  0.0026
  25. (0.05057) BD*( 1) C  1- C  6
               ( 49.50%)   0.7036* C  1 s( 22.62%)p 3.42( 77.31%)d 0.00(  0.07%)
                                         0.0000 -0.4756 -0.0032 -0.3953 -0.0146
                                         0.6323 -0.0024 -0.4656  0.0106  0.0016
                                        -0.0025  0.0229  0.0113 -0.0065
               ( 50.50%)  -0.7106* C  6 s( 24.07%)p 3.15( 75.85%)d 0.00(  0.07%)
                                         0.0000 -0.4906 -0.0075 -0.2698 -0.0270
                                        -0.4559  0.0027  0.6907 -0.0123  0.0046
                                        -0.0033  0.0234  0.0095 -0.0081
  26. (0.01340) BD*( 1) C  1- H  7
               ( 38.31%)   0.6189* C  1 s( 27.51%)p 2.63( 72.46%)d 0.00(  0.03%)
                                         0.0000 -0.5245  0.0004 -0.4322 -0.0002
                                        -0.7279  0.0018 -0.0856  0.0246 -0.0125
                                        -0.0046 -0.0079  0.0076  0.0053
               ( 61.69%)  -0.7854* H  7 s( 99.90%)p 0.00(  0.10%)
                                        -0.9995  0.0032  0.0163  0.0267  0.0024
  27. (0.01641) BD*( 1) C  1- H  8
               ( 38.17%)   0.6179* C  1 s( 27.26%)p 2.67( 72.71%)d 0.00(  0.03%)
                                         0.0000 -0.5221  0.0047  0.0609 -0.0158
                                         0.2446 -0.0220  0.8141  0.0059 -0.0037
                                        -0.0041 -0.0116  0.0037 -0.0106
               ( 61.83%)  -0.7863* H  8 s( 99.89%)p 0.00(  0.11%)
                                        -0.9995  0.0047 -0.0010 -0.0103 -0.0310
  28. (0.02035) BD*( 1) C  2- C  3
               ( 49.82%)   0.7058* C  2 s( 29.67%)p 2.37( 70.29%)d 0.00(  0.04%)
                                         0.0000  0.5447 -0.0064 -0.6334 -0.0351
                                        -0.4742  0.0323 -0.2722  0.0219  0.0127
                                         0.0043  0.0109 -0.0052 -0.0077
               ( 50.18%)  -0.7084* C  3 s( 27.42%)p 2.65( 72.54%)d 0.00(  0.04%)
                                         0.0000  0.5237 -0.0012  0.5407 -0.0194
                                         0.6116  0.0201  0.2414 -0.0004  0.0131
                                         0.0084  0.0071  0.0027 -0.0079
  29. (0.05033) BD*( 1) C  2- C  6
               ( 49.01%)   0.7001* C  2 s( 19.86%)p 4.03( 80.07%)d 0.00(  0.07%)
                                         0.0000 -0.4456  0.0090 -0.6174  0.0012
                                         0.5262 -0.0250 -0.3762 -0.0227  0.0192
                                        -0.0041  0.0044 -0.0090  0.0145
               ( 50.99%)  -0.7141* C  6 s( 23.05%)p 3.34( 76.88%)d 0.00(  0.07%)
                                         0.0000 -0.4795  0.0230  0.7893 -0.0326
                                        -0.2997 -0.0173 -0.2316 -0.0318  0.0193
                                        -0.0015  0.0029 -0.0110  0.0154
  30. (0.02312) BD*( 1) C  2- H  9
               ( 37.47%)   0.6121* C  2 s( 28.25%)p 2.54( 71.72%)d 0.00(  0.02%)
                                         0.0000 -0.5315 -0.0017  0.2263  0.0073
                                        -0.5883  0.0037 -0.5656  0.0059  0.0008
                                         0.0013 -0.0135  0.0051 -0.0034
               ( 62.53%)  -0.7908* H  9 s( 99.89%)p 0.00(  0.11%)
                                        -0.9995  0.0042 -0.0083  0.0228  0.0221
  31. (0.02331) BD*( 1) C  3- C  4
               ( 48.92%)   0.6994* C  3 s( 26.51%)p 2.77( 73.45%)d 0.00(  0.04%)
                                         0.0000 -0.5149 -0.0031 -0.3319  0.0198
                                         0.7808  0.0172 -0.1184  0.0034  0.0150
                                        -0.0036  0.0051  0.0076  0.0101
               ( 51.08%)  -0.7147* C  4 s( 29.99%)p 2.33( 69.97%)d 0.00(  0.04%)
                                         0.0000 -0.5475  0.0087  0.4057  0.0246
                                        -0.7147  0.0195  0.1523  0.0093  0.0126
                                        -0.0027  0.0061  0.0120  0.0097
  32. (0.01935) BD*( 1) C  3- H 10
               ( 38.30%)   0.6189* C  3 s( 22.94%)p 3.36( 77.03%)d 0.00(  0.03%)
                                         0.0000 -0.4789  0.0036  0.2011  0.0191
                                        -0.1020 -0.0018  0.8479 -0.0100  0.0004
                                        -0.0045  0.0032 -0.0006 -0.0167
               ( 61.70%)  -0.7855* H 10 s( 99.89%)p 0.00(  0.11%)
                                        -0.9994  0.0052 -0.0085  0.0048 -0.0318
  33. (0.01218) BD*( 1) C  3- H 11
               ( 37.94%)   0.6160* C  3 s( 23.03%)p 3.34( 76.94%)d 0.00(  0.03%)
                                         0.0000 -0.4799 -0.0030  0.7459  0.0028
                                        -0.0685 -0.0011 -0.4560  0.0171  0.0008
                                         0.0149 -0.0011 -0.0099  0.0003
               ( 62.06%)  -0.7878* H 11 s( 99.90%)p 0.00(  0.10%)
                                        -0.9995  0.0025 -0.0276  0.0037  0.0161
  34. (0.02142) BD*( 1) C  4- O  5
               ( 67.83%)   0.8236* C  4 s( 20.10%)p 3.96( 79.66%)d 0.01(  0.23%)
                                         0.0000  0.4480  0.0192  0.8774  0.0460
                                         0.1466 -0.0305 -0.0456 -0.0118  0.0171
                                        -0.0040 -0.0016  0.0372 -0.0253
               ( 32.17%)  -0.5672* O  5 s( 28.52%)p 2.50( 71.39%)d 0.00(  0.09%)
                                         0.0000  0.5341  0.0043 -0.8188 -0.0051
                                        -0.2006 -0.0229  0.0516 -0.0035 -0.0028
                                        -0.0073  0.0015  0.0239 -0.0149
  35. (0.01745) BD*( 1) C  4- H 12
               ( 39.16%)   0.6258* C  4 s( 25.04%)p 2.99( 74.92%)d 0.00(  0.04%)
                                         0.0000 -0.5003 -0.0091  0.1838 -0.0139
                                         0.6112 -0.0029  0.5844 -0.0144 -0.0032
                                        -0.0054 -0.0163  0.0086 -0.0054
               ( 60.84%)  -0.7800* H 12 s( 99.89%)p 0.00(  0.11%)
                                        -0.9995  0.0034 -0.0070 -0.0237 -0.0217
  36. (0.03220) BD*( 1) C  4- H 13
               ( 39.89%)   0.6316* C  4 s( 24.80%)p 3.03( 75.16%)d 0.00(  0.04%)
                                         0.0000 -0.4978  0.0108  0.1621 -0.0022
                                         0.3046  0.0176 -0.7951  0.0119 -0.0016
                                         0.0070  0.0091  0.0021 -0.0163
               ( 60.11%)  -0.7753* H 13 s( 99.89%)p 0.00(  0.11%)
                                        -0.9994  0.0087 -0.0060 -0.0126  0.0303
  37. (0.03286) BD*( 1) O  5- C  6
               ( 32.56%)   0.5706* O  5 s( 30.47%)p 2.28( 69.45%)d 0.00(  0.08%)
                                         0.0000 -0.5519 -0.0065 -0.1876 -0.0209
                                        -0.7683 -0.0062 -0.2619 -0.0015  0.0029
                                         0.0018 -0.0162  0.0209  0.0110
               ( 67.44%)  -0.8212* C  6 s( 22.31%)p 3.47( 77.47%)d 0.01(  0.21%)
                                         0.0000 -0.4721 -0.0160  0.1051 -0.0354
                                         0.8338  0.0465  0.2550 -0.0024 -0.0184
                                        -0.0066 -0.0238  0.0303  0.0168
  38. (0.03515) BD*( 1) C  6- H 14
               ( 38.50%)   0.6204* C  6 s( 30.32%)p 2.30( 69.65%)d 0.00(  0.03%)
                                         0.0000 -0.5507  0.0022 -0.5389  0.0045
                                        -0.0507  0.0221 -0.6348  0.0087 -0.0019
                                        -0.0125 -0.0039 -0.0051 -0.0070
               ( 61.50%)  -0.7842* H 14 s( 99.89%)p 0.00(  0.11%)
                                        -0.9994  0.0075  0.0215  0.0033  0.0256
  39. (0.00532) RY ( 1) C  1            s(  5.96%)p14.89( 88.79%)d 0.88(  5.24%)
                                         0.0000  0.0165  0.2437 -0.0164 -0.5174
                                        -0.0151 -0.7293 -0.0145 -0.2960  0.1734
                                        -0.0353 -0.0814 -0.0449 -0.1117
  40. (0.00363) RY ( 2) C  1            s( 10.04%)p 7.06( 70.94%)d 1.89( 19.02%)
                                         0.0000  0.0203  0.3163  0.0046 -0.1062
                                         0.0105 -0.1289 -0.0007  0.8254  0.2028
                                        -0.1546 -0.1106 -0.0993  0.3210
  41. (0.00068) RY ( 3) C  1            s(  9.49%)p 8.04( 76.36%)d 1.49( 14.14%)
                                         0.0000 -0.0025  0.3081 -0.0149  0.7692
                                         0.0057 -0.4131 -0.0019  0.0310 -0.0014
                                         0.1806  0.0129 -0.1980 -0.2635
  42. (0.00045) RY ( 4) C  1            s( 68.08%)p 0.23( 15.98%)d 0.23( 15.95%)
                                         0.0000 -0.0058  0.8251  0.0030 -0.1030
                                        -0.0023  0.3241  0.0051 -0.2100 -0.1924
                                         0.1065  0.2833  0.1177  0.1304
  43. (0.00014) RY ( 5) C  1            s(  0.12%)p55.60(  6.81%)d99.99( 93.07%)
                                         0.0000  0.0060  0.0345  0.0067 -0.1476
                                        -0.0116  0.1367  0.0028  0.1657 -0.0391
                                        -0.4867  0.4072 -0.3545 -0.6330
  44. (0.00011) RY ( 6) C  1            s(  0.07%)p99.99( 19.11%)d99.99( 80.82%)
                                         0.0000  0.0254  0.0063 -0.0044 -0.2283
                                        -0.0001 -0.0079  0.0002  0.3727 -0.2835
                                         0.5294 -0.1214  0.3849 -0.5336
  45. (0.00008) RY ( 7) C  1            s(  1.64%)p 7.39( 12.10%)d52.70( 86.27%)
  46. (0.00002) RY ( 8) C  1            s(  2.32%)p 1.71(  3.97%)d40.37( 93.71%)
  47. (0.00001) RY ( 9) C  1            s(  2.44%)p 2.45(  5.97%)d37.51( 91.58%)
  48. (0.00460) RY ( 1) C  2            s( 17.92%)p 3.86( 69.15%)d 0.72( 12.93%)
                                         0.0000  0.0253  0.4225 -0.0177  0.8114
                                        -0.0182 -0.0738 -0.0080 -0.1642 -0.0510
                                        -0.1352  0.2193  0.1918 -0.1535
  49. (0.00238) RY ( 2) C  2            s( 22.79%)p 2.58( 58.70%)d 0.81( 18.51%)
                                         0.0000 -0.0300  0.4764 -0.0069 -0.1107
                                         0.0174  0.2223  0.0210  0.7243  0.2436
                                        -0.0489 -0.1798  0.1630 -0.2539
  50. (0.00204) RY ( 3) C  2            s(  0.30%)p99.99( 80.88%)d62.63( 18.82%)
                                         0.0000  0.0267  0.0478  0.0079  0.0052
                                        -0.0141 -0.8440 -0.0140  0.3098 -0.0073
                                        -0.2332  0.0183 -0.3649  0.0173
  51. (0.00076) RY ( 4) C  2            s( 27.73%)p 1.66( 46.07%)d 0.94( 26.20%)
                                         0.0000 -0.0031  0.5266  0.0116 -0.5566
                                        -0.0151 -0.1689  0.0038 -0.3493 -0.0611
                                        -0.2211  0.3278  0.3166  0.0411
  52. (0.00030) RY ( 5) C  2            s(  7.74%)p 0.25(  1.92%)d11.68( 90.35%)
                                         0.0000  0.0109  0.2779  0.0231 -0.0170
                                         0.0004 -0.1003 -0.0108 -0.0903  0.3682
                                         0.7811  0.2605 -0.2999  0.0063
  53. (0.00022) RY ( 6) C  2            s(  1.00%)p11.75( 11.76%)d87.14( 87.23%)
                                         0.0000  0.0021  0.1000 -0.0122  0.0570
                                         0.0036 -0.0846 -0.0087  0.3271 -0.5917
                                         0.3689  0.0305  0.2911  0.5482
  54. (0.00013) RY ( 7) C  2            s(  1.45%)p11.50( 16.62%)d56.67( 81.93%)
                                         0.0000 -0.0238  0.1179  0.0033 -0.0573
                                         0.0095  0.3761 -0.0003  0.1463 -0.4387
                                        -0.1595  0.4719 -0.6043 -0.1162
  55. (0.00008) RY ( 8) C  2            s( 15.16%)p 0.47(  7.12%)d 5.13( 77.72%)
  56. (0.00005) RY ( 9) C  2            s(  6.23%)p 1.23(  7.66%)d13.83( 86.11%)
  57. (0.00535) RY ( 1) C  3            s(  6.06%)p14.97( 90.71%)d 0.53(  3.23%)
                                         0.0000  0.0143  0.2458  0.0150  0.5933
                                         0.0040 -0.0920 -0.0215 -0.7389  0.0020
                                        -0.1088  0.0437  0.0545 -0.1246
  58. (0.00184) RY ( 2) C  3            s(  1.01%)p74.26( 75.01%)d23.73( 23.98%)
                                         0.0000  0.0226  0.0979  0.0036  0.6617
                                         0.0000 -0.1479  0.0077  0.5388 -0.1147
                                         0.2795  0.0129  0.3456  0.1699
  59. (0.00113) RY ( 3) C  3            s(  0.92%)p99.99( 96.39%)d 2.91(  2.68%)
                                         0.0000  0.0051  0.0959 -0.0028  0.2289
                                        -0.0244  0.9498 -0.0024  0.0941  0.0464
                                        -0.0434 -0.0060 -0.1506 -0.0093
  60. (0.00059) RY ( 4) C  3            s( 59.74%)p 0.09(  5.10%)d 0.59( 35.16%)
                                         0.0000 -0.0031  0.7729 -0.0075 -0.1390
                                         0.0057 -0.1025  0.0003  0.1452 -0.0752
                                         0.1191  0.4567 -0.3503 -0.0222
  61. (0.00031) RY ( 5) C  3            s( 18.88%)p 0.07(  1.41%)d 4.22( 79.71%)
                                         0.0000  0.0005  0.4345  0.0008 -0.0192
                                         0.0095 -0.0837  0.0038  0.0811  0.1117
                                        -0.0427 -0.8717 -0.1513  0.0136
  62. (0.00017) RY ( 6) C  3            s(  7.80%)p 1.10(  8.60%)d10.72( 83.60%)
                                         0.0000 -0.0108  0.2790  0.0072 -0.2536
                                         0.0046  0.1466 -0.0067 -0.0114 -0.5475
                                        -0.3091 -0.0393  0.6407 -0.1692
  63. (0.00012) RY ( 7) C  3            s(  4.58%)p 2.98( 13.64%)d17.87( 81.79%)
                                         0.0000 -0.0103  0.2137 -0.0023 -0.2558
                                        -0.0190  0.1408  0.0028 -0.2252  0.5229
                                         0.4480  0.0384  0.5103  0.2861
  64. (0.00003) RY ( 8) C  3            s(  0.06%)p72.21(  4.68%)d99.99( 95.26%)
  65. (0.00001) RY ( 9) C  3            s(  1.05%)p 4.30(  4.50%)d90.18( 94.45%)
  66. (0.00405) RY ( 1) C  4            s(  7.09%)p10.81( 76.61%)d 2.30( 16.30%)
                                         0.0000 -0.0157  0.2658 -0.0485  0.8678
                                         0.0231 -0.0576  0.0091  0.0820  0.3707
                                        -0.0095  0.0273 -0.1569 -0.0098
  67. (0.00320) RY ( 2) C  4            s(  9.11%)p 8.37( 76.25%)d 1.61( 14.64%)
                                         0.0000  0.0281  0.3005  0.0232 -0.1792
                                         0.0180  0.6510  0.0265  0.5523  0.0757
                                         0.1382  0.2582 -0.2178 -0.0863
  68. (0.00181) RY ( 3) C  4            s( 10.29%)p 1.85( 19.04%)d 6.87( 70.67%)
                                         0.0000 -0.0025  0.3208 -0.0067  0.0306
                                        -0.0050  0.0644  0.0070 -0.4303 -0.1595
                                         0.8207  0.0345  0.0496 -0.0639
  69. (0.00148) RY ( 4) C  4            s(  0.44%)p99.99( 59.24%)d92.17( 40.33%)
                                         0.0000 -0.0141  0.0646 -0.0226  0.0793
                                        -0.0020 -0.5078  0.0122  0.5723 -0.2954
                                         0.2027  0.2825  0.3943 -0.1991
  70. (0.00052) RY ( 5) C  4            s( 32.06%)p 0.30(  9.52%)d 1.82( 58.42%)
                                         0.0000 -0.0004  0.5662 -0.0192  0.1205
                                        -0.0025  0.1814  0.0035 -0.2176 -0.5368
                                        -0.4815 -0.0092  0.2185 -0.1283
  71. (0.00021) RY ( 6) C  4            s( 15.39%)p 0.63(  9.74%)d 4.87( 74.88%)
                                         0.0000 -0.0044  0.3922 -0.0314 -0.2989
                                        -0.0032 -0.0638 -0.0013 -0.0546  0.6536
                                        -0.0731 -0.0870  0.5529 -0.0547
  72. (0.00010) RY ( 7) C  4            s( 24.39%)p 1.17( 28.54%)d 1.93( 47.07%)
                                         0.0000 -0.0053  0.4938  0.0236 -0.2494
                                        -0.0020 -0.4337 -0.0044  0.1860 -0.0438
                                         0.0107 -0.3262 -0.4774  0.3666
  73. (0.00006) RY ( 8) C  4            s(  1.25%)p16.18( 20.16%)d63.07( 78.59%)
  74. (0.00001) RY ( 9) C  4            s(  0.07%)p17.90(  1.18%)d99.99( 98.75%)
  75. (0.00267) RY ( 1) O  5            s(  3.07%)p30.91( 94.85%)d 0.68(  2.08%)
                                         0.0000  0.0032  0.1751 -0.0026 -0.1483
                                         0.0010  0.3737 -0.0049 -0.8871 -0.0278
                                         0.0775 -0.0660 -0.0150 -0.0972
  76. (0.00162) RY ( 2) O  5            s(  5.36%)p14.25( 76.42%)d 3.39( 18.21%)
                                         0.0000 -0.0116  0.2313  0.0062  0.6057
                                        -0.0042 -0.5628 -0.0030 -0.2838  0.3977
                                         0.1360 -0.0241 -0.0023 -0.0698
  77. (0.00024) RY ( 3) O  5            s(  1.57%)p11.60( 18.22%)d51.05( 80.21%)
                                         0.0000  0.0011  0.1253 -0.0061  0.2768
                                        -0.0019  0.3056 -0.0008  0.1102  0.1636
                                        -0.5981 -0.6300 -0.0952 -0.1082
  78. (0.00018) RY ( 4) O  5            s( 72.84%)p 0.07(  5.45%)d 0.30( 21.72%)
                                         0.0000 -0.0007  0.8534 -0.0040  0.0502
                                        -0.0186  0.1132 -0.0111  0.1966 -0.2493
                                        -0.0105  0.2651 -0.2894  0.0302
  79. (0.00012) RY ( 5) O  5            s( 10.15%)p 6.72( 68.24%)d 2.13( 21.61%)
                                         0.0000 -0.0007  0.3186  0.0246 -0.6481
                                         0.0245 -0.5088  0.0022 -0.0483  0.1087
                                        -0.2510 -0.2419  0.2806 -0.0635
  80. (0.00009) RY ( 6) O  5            s(  3.34%)p 2.73(  9.12%)d26.19( 87.54%)
  81. (0.00003) RY ( 7) O  5            s(  3.36%)p 6.33( 21.27%)d22.45( 75.38%)
  82. (0.00002) RY ( 8) O  5            s(  0.25%)p 3.65(  0.92%)d99.99( 98.83%)
  83. (0.00000) RY ( 9) O  5            s(  0.08%)p73.07(  5.77%)d99.99( 94.15%)
  84. (0.00651) RY ( 1) C  6            s(  3.08%)p26.13( 80.60%)d 5.29( 16.32%)
                                         0.0000  0.0326  0.1726  0.0105 -0.2412
                                        -0.0389  0.8541 -0.0026 -0.1291 -0.2811
                                         0.0143 -0.1805 -0.1827 -0.1343
  85. (0.00286) RY ( 2) C  6            s( 50.42%)p 0.22( 11.15%)d 0.76( 38.43%)
                                         0.0000 -0.0134  0.7100 -0.0216  0.0741
                                         0.0263 -0.2814  0.0231 -0.1585  0.1650
                                         0.1568 -0.4474 -0.2369 -0.2760
  86. (0.00244) RY ( 3) C  6            s(  0.99%)p56.57( 55.76%)d43.89( 43.26%)
                                         0.0000  0.0319  0.0940 -0.0358 -0.6474
                                        -0.0019 -0.1047 -0.0255 -0.3544  0.0754
                                         0.4656  0.0676  0.3737  0.2567
  87. (0.00159) RY ( 4) C  6            s(  2.68%)p29.35( 78.66%)d 6.96( 18.66%)
                                         0.0000  0.0121  0.1633  0.0063 -0.4786
                                        -0.0065  0.0569 -0.0027  0.7444  0.3494
                                        -0.1777 -0.0203  0.1059 -0.1459
  88. (0.00117) RY ( 5) C  6            s( 13.73%)p 0.45(  6.16%)d 5.83( 80.11%)
                                         0.0000 -0.0145  0.3702  0.0028  0.0086
                                         0.0287 -0.0772  0.0030  0.2340 -0.3581
                                         0.3051  0.6963 -0.3081 -0.0027
  89. (0.00037) RY ( 6) C  6            s(  3.00%)p 3.73( 11.19%)d28.64( 85.81%)
                                         0.0000  0.0011  0.1731  0.0003 -0.0953
                                        -0.0289 -0.2387 -0.0003  0.2121 -0.7286
                                        -0.2547 -0.3384  0.2508  0.2916
  90. (0.00014) RY ( 7) C  6            s(  9.25%)p 1.77( 16.34%)d 8.04( 74.41%)
                                         0.0000  0.0238  0.3032 -0.0234 -0.1892
                                         0.0201 -0.0197  0.0014 -0.3553  0.1770
                                        -0.7186  0.3007 -0.1456  0.2912
  91. (0.00012) RY ( 8) C  6            s(  2.43%)p 1.56(  3.78%)d38.60( 93.79%)
                                         0.0000  0.0035  0.1558  0.0157  0.0934
                                         0.0028  0.0172 -0.0125 -0.1685 -0.1310
                                        -0.1882  0.2646  0.6273 -0.6495
  92. (0.00006) RY ( 9) C  6            s( 14.66%)p 2.49( 36.51%)d 3.33( 48.83%)
  93. (0.00224) RY ( 1) H  7            s( 98.57%)p 0.01(  1.43%)
                                         0.0061  0.9928 -0.0124  0.1169  0.0226
  94. (0.00020) RY ( 2) H  7            s(  0.31%)p99.99( 99.69%)
                                         0.0041  0.0552  0.8878 -0.4126  0.1963
  95. (0.00011) RY ( 3) H  7            s(  0.65%)p99.99( 99.35%)
                                        -0.0163  0.0788 -0.0519 -0.5085 -0.8557
  96. (0.00002) RY ( 4) H  7            s(  0.58%)p99.99( 99.42%)
  97. (0.00347) RY ( 1) H  8            s( 99.35%)p 0.01(  0.65%)
                                         0.0071  0.9967 -0.0328 -0.0294 -0.0672
  98. (0.00017) RY ( 2) H  8            s(  0.00%)p 1.00(100.00%)
                                         0.0068 -0.0009  0.6294 -0.7768  0.0197
  99. (0.00013) RY ( 3) H  8            s(  0.40%)p99.99( 99.60%)
                                        -0.0153  0.0610  0.7420  0.6080  0.2752
 100. (0.00002) RY ( 4) H  8            s(  0.35%)p99.99( 99.65%)
 101. (0.00193) RY ( 1) H  9            s( 99.64%)p 0.00(  0.36%)
                                         0.0061  0.9982 -0.0003  0.0477  0.0361
 102. (0.00019) RY ( 2) H  9            s(  0.01%)p99.99( 99.99%)
                                        -0.0061  0.0088 -0.2676  0.4570 -0.8482
 103. (0.00007) RY ( 3) H  9            s(  0.41%)p99.99( 99.59%)
 104. (0.00002) RY ( 4) H  9            s(  0.05%)p99.99( 99.95%)
 105. (0.00343) RY ( 1) H 10            s( 99.61%)p 0.00(  0.39%)
                                         0.0072  0.9980 -0.0251  0.0060 -0.0572
 106. (0.00012) RY ( 2) H 10            s(  0.04%)p99.99( 99.96%)
                                        -0.0119  0.0149 -0.7522  0.2401  0.6133
 107. (0.00011) RY ( 3) H 10            s(  0.00%)p 1.00(100.00%)
                                         0.0019  0.0020  0.3049  0.9524  0.0010
 108. (0.00002) RY ( 4) H 10            s(  0.47%)p99.99( 99.53%)
 109. (0.00243) RY ( 1) H 11            s( 99.21%)p 0.01(  0.79%)
                                         0.0052  0.9960 -0.0867  0.0015  0.0191
 110. (0.00014) RY ( 2) H 11            s(  0.02%)p99.99( 99.98%)
                                        -0.0054  0.0121  0.0555  0.8934 -0.4457
 111. (0.00013) RY ( 3) H 11            s(  0.01%)p99.99( 99.99%)
                                         0.0107 -0.0014  0.1862  0.4294  0.8837
 112. (0.00003) RY ( 4) H 11            s(  0.86%)p99.99( 99.14%)
 113. (0.00195) RY ( 1) H 12            s( 99.47%)p 0.01(  0.53%)
                                         0.0058  0.9973 -0.0141 -0.0451 -0.0552
 114. (0.00014) RY ( 2) H 12            s(  0.06%)p99.99( 99.94%)
                                        -0.0067  0.0237  0.4199 -0.5184  0.7446
 115. (0.00011) RY ( 3) H 12            s(  0.22%)p99.99( 99.78%)
                                        -0.0180  0.0430 -0.6687  0.3779  0.6387
 116. (0.00002) RY ( 4) H 12            s(  0.36%)p99.99( 99.64%)
 117. (0.00415) RY ( 1) H 13            s( 99.00%)p 0.01(  1.00%)
                                         0.0099  0.9950 -0.0968  0.0072  0.0234
 118. (0.00015) RY ( 2) H 13            s(  0.60%)p99.99( 99.40%)
                                         0.0113  0.0767  0.8476 -0.3846  0.3573
 119. (0.00012) RY ( 3) H 13            s(  0.07%)p99.99( 99.93%)
                                        -0.0135  0.0222 -0.0008 -0.6792 -0.7335
[...]
 12 H                -0.2       0.0      -0.1      -0.0      -0.0      -0.1
 13 H                 0.2      57.2      -0.1       0.3       0.1      -0.0

                     42        43        44        45        46        47   
                   0.00000   0.00000   0.00000   0.00000   0.00000   0.00000
                   0.00014   0.00011   0.00008   0.00002   0.00001   0.00460
                  --------  --------  --------  --------  --------  --------
  0 C               110.5     113.6     114.8     112.2     112.2     -37.2
  1 C                -0.9      -5.5      -2.2      -1.0      -5.1     187.7
  2 C                 0.0      -1.2       0.2      -0.0       0.3      -8.3
  3 C                -0.0       0.2      -0.1       0.1       0.0      -0.5
  4 O                -0.1       0.1       0.1      -0.0      -0.0       0.1
  5 C                -2.2      -1.4      -1.0      -4.9      -1.8     -39.4
  6 H                -2.5      -0.6     -10.6      -2.7      -2.6       0.2
  7 H                -4.4      -5.1      -1.3      -3.4      -2.8       0.4
  8 H                -0.1       0.0       0.1       0.0      -0.1      -3.2
  9 H                -0.0      -0.0      -0.0      -0.0      -0.0      -0.7
 10 H                -0.0      -0.0      -0.0      -0.0      -0.0       0.7
 13 H                -0.2      -0.1      -0.0      -0.1      -0.0       0.2

                     48        49        50        51        52        53   
                   0.00000   0.00000   0.00000   0.00000   0.00000   0.00000
                   0.00238   0.00204   0.00076   0.00030   0.00022   0.00013
                  --------  --------  --------  --------  --------  --------
  0 C                -0.8     -10.9      -9.3      -6.9      -1.3      -3.2
  1 C               162.3     142.2     175.4     121.0     110.2     119.2
  2 C                -9.3     -15.6     -63.9      -9.0      -4.0      -1.9
  3 C                 0.6       1.6       1.0       0.6       0.3       0.3
  4 O                -0.4      -0.1      -0.5      -0.0       0.1       0.1
  5 C               -18.4     -10.8      -2.7      -4.2      -3.4      -1.8
  6 H                 0.1       0.8      -0.2      -0.0      -0.2       0.0
  7 H                -0.0      -0.7       0.5       0.1       0.1      -0.0
  8 H               -34.8      -6.4      -0.6      -1.4      -1.6     -12.7
  9 H                -0.1      -0.1       0.4      -0.0       0.2      -0.0
 10 H                 0.4      -0.1       0.0       0.1      -0.1       0.0
 11 H                 0.0      -0.1      -0.2      -0.0      -0.0      -0.0
 12 H                -0.1       0.1       0.1       0.0      -0.0      -0.0
 13 H                 0.5       0.1      -0.2      -0.0      -0.2       0.1

                     54        55        56        57        58        59   
                   0.00000   0.00000   0.00000   0.00000   0.00000   0.00000
                   0.00008   0.00005   0.00535   0.00184   0.00113   0.00059
                  --------  --------  --------  --------  --------  --------
  0 C               -13.7      -8.5      -2.6      -2.1       0.6      -0.1
  1 C               137.4     124.7     -24.6     -17.9     -38.9     -36.5
  2 C               -10.3     -13.1     175.5     147.6     159.6     208.2
  3 C                 0.0       0.6     -24.6     -17.2     -18.4     -46.5
  4 O                 0.0      -0.2      -0.4       0.0      -0.6       0.3
  5 C               -11.5      -1.1       2.6       3.9      -0.5       3.0
  6 H                 0.2      -0.0      -0.1      -0.0      -0.0      -0.1
  7 H                 0.2       0.3      -0.4      -0.2      -0.3      -0.1
  8 H                -2.4      -2.8       0.2      -0.1      -0.1      -0.3
  9 H                 0.3       0.4     -14.7     -10.6      -0.6      -8.8
 10 H                -0.2      -0.0     -11.4      -3.1      -0.8     -20.1
 11 H                -0.0      -0.0       0.6      -0.2       0.1       0.2
 12 H                -0.0       0.0       0.0      -0.1       0.0       0.7
 13 H                -0.1      -0.0      -0.0      -0.0      -0.0      -0.1

                     60        61        62        63        64        65   
                   0.00000   0.00000   0.00000   0.00000   0.00000   0.00000
                   0.00031   0.00017   0.00012   0.00003   0.00001   0.00405
                  --------  --------  --------  --------  --------  --------
  0 C                -0.6       0.0      -0.1       0.0      -0.1      -0.3
  1 C               -12.0      -6.4      -1.4      -1.7      -2.0       1.1
  2 C               137.5     121.5     113.3     112.3     112.5      -3.8
  3 C               -15.2      -1.3      -2.0      -1.1      -5.7     133.2
  4 O                 0.1       0.0      -0.1       0.0       0.0     -14.6
  5 C                 0.5      -0.4       0.0       0.0       0.1     -11.2
  8 H                -0.1      -0.0       0.0       0.1      -0.0       0.0
  9 H                -4.2      -3.2      -6.9      -8.0      -1.1      -0.0
 10 H                -5.7     -10.2      -2.8      -1.7      -3.9      -0.4
 11 H                 0.3      -0.0      -0.0       0.0      -0.0      -1.6
 12 H                -0.4      -0.0      -0.0       0.1       0.0      -2.3
 13 H                -0.0      -0.0      -0.0       0.0      -0.0      -0.1

                     66        67        68        69        70        71   
                   0.00000   0.00000   0.00000   0.00000   0.00000   0.00000
                   0.00320   0.00181   0.00148   0.00052   0.00021   0.00010
                  --------  --------  --------  --------  --------  --------
  0 C                 0.2       0.2      -0.4       1.1       0.1      -0.1
  1 C                 2.7       0.8       0.9       2.8       0.7      -0.2
  2 C               -37.8     -15.4     -13.5     -31.8     -22.0      -7.9
  3 C               160.5     134.2     129.6     155.0     131.4     143.5
  4 O                -0.9      -6.9      -1.2      -5.5      -0.3      -4.3
  5 C                -8.6      -1.1      -0.1     -10.4      -0.7       0.4
  7 H                -0.0      -0.0      -0.0      -0.3       0.0       0.0
  9 H                -0.5       0.1       0.3       0.6       0.1      -0.0
 10 H                 1.2       0.0      -0.2      -0.2       0.2       0.5
 11 H                -7.8      -8.1      -1.5      -9.8      -6.1     -12.5
 12 H                -8.8      -3.9     -14.0      -1.4      -3.3     -19.4
 13 H                -0.1      -0.0      -0.0      -0.2      -0.0      -0.0

                     72        73        74        75        76        77   
                   0.00000   0.00000   0.00000   0.00000   0.00000   0.00000
                   0.00006   0.00001   0.00267   0.00162   0.00024   0.00018
                  --------  --------  --------  --------  --------  --------
  0 C                 0.2      -0.0       0.9      -0.2       0.0       0.2
  1 C                -0.8      -0.1       0.1      -0.1      -0.1       0.4
  2 C                -3.8      -1.4       0.2      -0.2      -0.1       0.2
  3 C               121.3     107.7      -5.6      -2.6      -2.0      -4.9
  4 O                -0.1      -0.5     116.0     105.7     106.6     118.1
  5 C                -1.4       0.0     -11.3      -2.4      -4.1     -12.5
  7 H                -0.0      -0.0      -0.2      -0.0      -0.0      -0.1
  8 H                -0.0      -0.0      -0.0      -0.0      -0.0      -0.1
  9 H                 0.3      -0.0      -0.0      -0.0      -0.0      -0.0
 10 H                -0.1       0.0      -0.0      -0.0      -0.0      -0.1
 11 H               -12.3      -3.7      -0.1       0.0      -0.0      -0.3
 12 H                -3.2      -2.0       0.1      -0.0      -0.0      -0.2
 13 H                -0.1      -0.0       0.0      -0.0      -0.2      -0.5

                     78        79        80        81        82        83   
                   0.00000   0.00000   0.00000   0.00000   0.00000   0.00000
                   0.00012   0.00009   0.00003   0.00002   0.00000   0.00651
                  --------  --------  --------  --------  --------  --------
  0 C                -0.0      -0.0       0.2      -0.2      -0.1     -22.0
  1 C                -0.4      -0.1       0.3       0.1      -0.0     -21.4
  2 C                 0.5      -0.0      -0.2      -0.1       0.0      -0.1
  3 C               -16.0      -1.5      -1.7      -0.9      -1.0      -0.4
  4 O               119.3     107.0     106.5     101.3     102.3      -7.4
  5 C                -4.1      -5.3      -4.8      -0.3      -1.0     155.0
  6 H                -0.0      -0.0       0.0      -0.0      -0.0       0.3
  7 H                -0.0      -0.0      -0.0      -0.0      -0.0      -0.2
 11 H                 0.5      -0.0       0.0      -0.0      -0.0       0.0
 12 H                 0.1      -0.0      -0.1      -0.0      -0.1      -0.2
 13 H                 0.1      -0.1      -0.1       0.0      -0.0      -3.8

                     84        85        86        87        88        89   
                   0.00000   0.00000   0.00000   0.00000   0.00000   0.00000
                   0.00286   0.00244   0.00159   0.00117   0.00037   0.00014
                  --------  --------  --------  --------  --------  --------
  0 C               -26.6      -6.3      -4.3      -3.7      -0.4     -14.3
  1 C               -17.9      -7.7     -22.4      -5.9      -3.3     -12.0
  2 C                 3.1       1.2       1.0       0.9       0.5       2.4
  3 C               -12.1      -6.7      -2.8      -2.4      -2.8      -4.5
  4 O               -13.4      -7.0      -0.8       0.9      -5.8      -7.0
  5 C               172.9     145.2     134.7     116.9     114.3     140.0
  6 H                -0.3       0.1       0.1       0.0      -0.2      -0.1
  7 H                 0.8       0.0      -0.1      -0.0       0.0      -0.1
  8 H                -0.2      -0.1       0.6      -0.1      -0.0      -0.0
 11 H                -0.1      -0.1      -0.0      -0.1      -0.1      -0.1
 12 H                 0.2       0.0      -0.1       0.1      -0.0      -0.0
 13 H                -6.4     -18.5      -6.0      -6.6      -2.1      -4.4

                     90        91        92        93        94        95   
                   0.00000   0.00000   0.00000   0.00000   0.00000   0.00000
                   0.00012   0.00006   0.00224   0.00020   0.00011   0.00002
                  --------  --------  --------  --------  --------  --------
  0 C               -10.1     -20.8     -40.4      -3.0      -5.0      -6.4
  1 C                -0.3      -5.7       0.8      -0.4       0.0      -0.3
  2 C                -0.1      -0.8      -0.2       0.0      -0.0      -0.0
  3 C                -0.1       1.3       0.1      -0.0      -0.0      -0.0
  4 O                -1.9      -0.8       0.0      -0.1      -0.0      -0.0
  5 C               113.7     144.4      -0.1      -0.0       0.0      -0.3
  6 H                -0.1       0.6     142.1     103.8     105.8     107.1
  7 H                 0.2      -0.1      -0.9      -0.2      -0.7      -0.0
  8 H                 0.0       0.1      -0.7      -0.0      -0.0      -0.0
 13 H                -1.2     -18.3      -0.7      -0.0      -0.0      -0.0

                     96        97        98        99       100       101   
                   0.00000   0.00000   0.00000   0.00000   0.00000   0.00000
                   0.00347   0.00017   0.00013   0.00002   0.00193   0.00019
                  --------  --------  --------  --------  --------  --------
  0 C               -41.4      -3.1      -4.8      -6.8       0.0      -0.2
  1 C                 1.4      -0.1      -0.0      -0.4     -42.4      -3.3
  2 C                -1.2      -0.0      -0.0      -0.0      -0.5      -0.2
  3 C                -0.3      -0.0      -0.0      -0.0       0.0      -0.0
  4 O                -0.2      -0.1      -0.0      -0.0      -0.0      -0.1
  5 C                 0.4      -0.1       0.1      -0.3       0.0      -0.3
  6 H                -0.8      -0.2      -0.7       0.0      -0.7      -0.0
  7 H               143.6     103.7     105.6     107.5       0.0      -0.0
  8 H                 0.0      -0.0      -0.0      -0.0     145.1     104.3
  9 H                -1.6      -0.0      -0.0      -0.0       0.0      -0.0
 10 H                -0.0      -0.0      -0.0      -0.0      -1.1      -0.1
 13 H                 0.0      -0.0      -0.0      -0.0      -0.4      -0.0

                    102       103       104       105       106       107   
                   0.00000   0.00000   0.00000   0.00000   0.00000   0.00000
                   0.00007   0.00002   0.00343   0.00012   0.00011   0.00002
                  --------  --------  --------  --------  --------  --------
  0 C                 0.2      -0.6      -0.8      -0.0      -0.0       0.0
  1 C                -7.5      -4.2       0.6      -0.0      -0.2      -0.3
  2 C                -0.5      -0.0     -35.6      -4.8      -2.8      -7.2
  3 C                 0.0      -0.0       0.3       0.1      -0.3      -0.2
  5 C                -0.0      -0.4       0.2      -0.0      -0.0      -0.0
  7 H                -0.0      -0.0      -1.6       0.0      -0.0      -0.0
  8 H               108.0     105.3       0.0      -0.0      -0.0      -0.0
  9 H                -0.0      -0.0     138.7     105.7     103.9     107.8
 10 H                -0.0      -0.0      -0.5      -0.7      -0.4       0.0
 11 H                -0.0      -0.0      -1.2      -0.0      -0.1      -0.0

                    108       109       110       111       112       113   
                   0.00000   0.00000   0.00000   0.00000   0.00000   0.00000
                   0.00243   0.00014   0.00013   0.00003   0.00195   0.00014
                  --------  --------  --------  --------  --------  --------
  1 C                 0.5      -0.2      -0.0      -0.3      -0.3       0.0
  2 C               -36.7      -3.3      -4.1      -7.5       1.1      -0.2
  3 C                 0.7      -0.1      -0.1      -0.3     -41.2      -3.3
  4 O                -0.0      -0.0      -0.0      -0.0       0.4      -0.2
  5 C                -0.1      -0.0      -0.0       0.0      -0.2      -0.0
  8 H                -1.1      -0.1      -0.0      -0.0      -0.0      -0.0
  9 H                -0.6      -0.5      -0.6       0.0      -1.3      -0.0
 10 H               138.6     104.4     105.0     108.3       0.1      -0.0
 11 H                 0.1      -0.0      -0.0      -0.0     142.2     104.4
 12 H                -1.3      -0.0      -0.1      -0.0      -0.7      -0.6

                    114       115       116       117       118       119   
                   0.00000   0.00000   0.00000   0.00000   0.00000   0.00000
                   0.00011   0.00002   0.00415   0.00015   0.00012   0.00002
                  --------  --------  --------  --------  --------  --------
  0 C                -0.0      -0.0      -0.2      -0.0      -0.0      -0.0
  1 C                -0.0       0.0       0.2      -0.1      -0.0      -0.0
  2 C                -0.2      -0.4       0.2      -0.3       0.1      -0.2
  3 C                -4.5      -6.0     -35.4      -3.6      -4.3      -6.4
  4 O                -0.1      -0.6       0.0      -0.2      -0.1      -0.4
  5 C                -0.1      -0.1      -0.1       0.1      -0.1      -0.2
 10 H                 0.0      -0.0      -1.3      -0.1      -0.0      -0.0
 11 H               105.4     107.2      -0.6      -0.4      -0.7       0.0
 12 H                -0.5      -0.0     137.2     104.7     105.2     107.3

                    120       121       122       123   
                   0.00000   0.00000   0.00000   0.00000
                   0.00265   0.00018   0.00007   0.00005
                  --------  --------  --------  --------
  0 C                -0.1      -0.1       0.2      -0.7
  1 C                 0.7      -0.7      -0.1      -0.5
  2 C                -0.2       0.0      -0.0      -0.0
  3 C                 0.0      -0.2      -0.2      -0.0
  4 O                -0.4      -0.2      -0.5      -0.2
  5 C               -44.4      -3.0      -6.7      -4.5
  6 H                -0.7      -0.0      -0.0       0.0
  8 H                -0.4      -0.0      -0.0      -0.0
 13 H               145.5     104.3     107.4     106.1

Storing NBOs: 0650.nbo
                                    *** NBOs were stored ***

                                *** returned from GENNBO program ***

-------
TIMINGS
-------

Total SCF time: 0 days 0 hours 0 min 4 sec 

Total time                  ....       4.339 sec
Sum of individual times     ....       4.769 sec  (109.9%)

Fock matrix formation       ....       2.800 sec  ( 64.5%)
  Coulomb formation         ....       1.465 sec  ( 52.3% of F)
  Split-RI-J                ....       1.459 sec  ( 52.1% of F)
  XC integration            ....       1.332 sec  ( 47.6% of F)
    Basis function eval.    ....       0.431 sec  ( 32.4% of XC)
    Density eval.           ....       0.238 sec  ( 17.9% of XC)
    XC-Functional eval.     ....       0.079 sec  (  5.9% of XC)
    XC-Potential eval.      ....       0.531 sec  ( 39.8% of XC)
Diagonalization             ....       0.018 sec  (  0.4%)
Density matrix formation    ....       0.002 sec  (  0.0%)
Population analysis         ....       1.040 sec  ( 24.0%)
Initial guess               ....       0.329 sec  (  7.6%)
Orbital Transformation      ....       0.000 sec  (  0.0%)
Orbital Orthonormalization  ....       0.000 sec  (  0.0%)
DIIS solution               ....       0.005 sec  (  0.1%)
SOSCF solution              ....       0.006 sec  (  0.1%)
Grid generation             ....       0.569 sec  ( 13.1%)
           ************************************************************
           *              Shut down parallel processing               *
           ************************************************************

-------------------------   --------------------
FINAL SINGLE POINT ENERGY      -269.977846879478
-------------------------   --------------------


                            ***************************************
                            *     ORCA property calculations      *
                            ***************************************

                                    ---------------------
                                    Active property flags
                                    ---------------------
   (+) Dipole Moment


------------------------------------------------------------------------------
                       ORCA ELECTRIC PROPERTIES CALCULATION
------------------------------------------------------------------------------

Dipole Moment Calculation                       ... on
Quadrupole Moment Calculation                   ... off
Polarizability Calculation                      ... off
GBWName                                         ... 0650.gbw
Electron density file                           ... 0650.scfp.tmp

-------------
DIPOLE MOMENT
-------------
                                X             Y             Z
Electronic contribution:      2.11611      -1.31807       0.39223
Nuclear contribution   :     -2.58209       1.65955      -0.22627
                        -----------------------------------------
Total Dipole Moment    :     -0.46598       0.34148       0.16596
                        -----------------------------------------
Magnitude (a.u.)       :      0.60108
Magnitude (Debye)      :      1.52782


Timings for individual modules:

Sum of individual times         ...        5.461 sec (=   0.091 min)
GTO integral calculation        ...        0.468 sec (=   0.008 min)   8.6 %
SCF iterations                  ...        4.993 sec (=   0.083 min)  91.4 %
                             ****ORCA TERMINATED NORMALLY****
TOTAL RUN TIME: 0 days 0 hours 0 minutes 5 seconds 860 msec
