
                                 *****************
                                 * O   R   C   A *
                                 *****************

           --- An Ab Initio, DFT and Semiempirical electronic structure package ---

                  #######################################################
                  #                        -***-                        #
                  #  Department of molecular theory and spectroscopy    #
                  #              Directorship: Frank Neese              #
                  # Max Planck Institute for Chemical Energy Conversion #
                  #                  D-45470 Muelheim/Ruhr              #
                  #                       Germany                       #
                  #                                                     #
                  #                  All rights reserved                #
                  #                        -***-                        #
                  #######################################################


                         Program Version 3.0.3 - RELEASE   -


 With contributions from (in alphabetic order):
   Ute Becker             : Parallelization
   Dmytro Bykov           : SCF Hessian
   Dmitry Ganyushin       : Spin-Orbit,Spin-Spin,Magnetic field MRCI
   Andreas Hansen         : Spin unrestricted coupled pair/coupled cluster methods
   Dimitrios Liakos       : Extrapolation schemes; parallel MDCI
   Robert Izsak           : Overlap fitted RIJCOSX, COSX-SCS-MP3
   Christian Kollmar      : KDIIS, OOCD, Brueckner-CCSD(T), CCSD density
   Simone Kossmann        : Meta GGA functionals, TD-DFT gradient, OOMP2, MP2 Hessian
   Taras Petrenko         : DFT Hessian,TD-DFT gradient, ASA and ECA modules, normal mode analysis, Resonance Raman, ABS, FL, XAS/XES, NRVS
   Christoph Reimann      : Effective Core Potentials
   Michael Roemelt        : Restricted open shell CIS
   Christoph Riplinger    : Improved optimizer, TS searches, QM/MM, DLPNO-CCSD
   Barbara Sandhoefer     : DKH picture change effects
   Igor Schapiro          : Molecular dynamics
   Kantharuban Sivalingam : CASSCF convergence, NEVPT2
   Boris Wezisla          : Elementary symmetry handling
   Frank Wennmohs         : Technical directorship


 We gratefully acknowledge several colleagues who have allowed us to
 interface, adapt or use parts of their codes:
   Stefan Grimme, W. Hujo, H. Kruse, T. Risthaus : VdW corrections, initial TS optimization,
                                                   DFT functionals, gCP
   Ed Valeev                                     : LibInt (2-el integral package), F12 methods
   Garnet Chan, S. Sharma, R. Olivares           : DMRG
   Ulf Ekstrom                                   : XCFun DFT Library
   Mihaly Kallay                                 : mrcc  (arbitrary order and MRCC methods)
   Andreas Klamt, Michael Diedenhofen            : otool_cosmo (COSMO solvation model)
   Frank Weinhold                                : gennbo (NPA and NBO analysis)
   Christopher J. Cramer and Donald G. Truhlar   : smd solvation model


 Your calculation uses the libint2 library for the computation of 2-el integrals
 For citations please refer to: http://libint.valeyev.net

 This ORCA versions uses:
   CBLAS   interface :  Fast vector & matrix operations
   LAPACKE interface :  Fast linear algebra routines
   SCALAPACK package :  Parallel linear algebra routines


Your calculation utilizes the basis: Ahlrichs-VDZ
Cite in your paper:
H - Kr: A. Schaefer, H. Horn and R. Ahlrichs, J. Chem. Phys. 97, 2571 (1992).

Your calculation utilizes the basis: Ahlrichs SVPalls1+f
Cite in your paper:
Rb - Xe: A. Schaefer, C. Huber and R. Ahlrichs, J. Chem. Phys. 100, 5829 (1994).

================================================================================
                                        WARNINGS
                       Please study these warnings very carefully!
================================================================================
Now building the actual basis set


INFO   : the flag for use of LIBINT has been found!

================================================================================
                                       INPUT FILE
================================================================================
NAME = 0741.inp
|  1> ! RI PBE def2-SVP def2-SVP/J NBO PAL2
|  2> % maxcore 2000
|  3> % output
|  4>     # printlevel mini
|  5>     print[ P_Basis ] 0
|  6>     print[ P_SCFInfo ] 1
|  7>     print[ P_SCFIterInfo ] 1
|  8>     print[ P_OrbEn ] 0
|  9>     print[ P_Cartesian ] 0
| 10> end
| 11> *xyz 0 1
| 12>  C        0.8296900000    -0.0249910000    -0.1773980000 
| 13>  C        2.3056700000    -0.1236360000    -0.0410170000 
| 14>  C        3.1276390000    -0.6153570000    -0.9678040000 
| 15>  C        4.5938260000    -0.7156810000    -0.8376290000 
| 16>  C        5.2588020000    -0.2353070000     0.4281620000 
| 17>  O        5.2472480000    -1.1814590000    -1.7468020000 
| 18>  H        0.5006150000     1.0143990000    -0.0771320000 
| 19>  H        0.3293670000    -0.5848020000     0.6194480000 
| 20>  H        0.4859550000    -0.4071500000    -1.1392600000 
| 21>  H        2.7253150000     0.2391560000     0.8950310000 
| 22>  H        2.7409240000    -0.9859220000    -1.9136110000 
| 23>  H        4.8841660000    -0.7826590000     1.2969310000 
| 24>  H        5.0561980000     0.8255460000     0.5962410000 
| 25>  H        6.3323950000    -0.3888380000     0.3393600000 
| 26> *
| 27> 
| 28>                          ****END OF INPUT****
================================================================================

                       ****************************
                       * Single Point Calculation *
                       ****************************

--------------------------------
INTERNAL COORDINATES (ANGSTROEM)
--------------------------------
 C      0   0   0   0.000000     0.000     0.000
 C      1   0   0   1.485546     0.000     0.000
 C      2   1   0   1.332800   124.989     0.000
 C      3   2   1   1.475369   125.213   180.001
 C      4   3   2   1.508370   119.373     0.000
 O      4   3   2   1.212644   119.700   180.011
 H      1   2   3   1.094840   110.687   238.826
 H      1   2   3   1.094840   110.687   121.172
 H      1   2   3   1.090586   111.768     0.000
 H      2   1   3   1.088074   116.106   180.000
 H      3   2   1   1.086930   120.760     0.000
 H      5   4   3   1.093026   110.880    59.662
 H      5   4   3   1.093027   110.881   300.355
 H      5   4   3   1.088145   108.756   180.008

---------------------------
INTERNAL COORDINATES (A.U.)
---------------------------
 C      0   0   0   0.000000     0.000     0.000
 C      1   0   0   2.807276     0.000     0.000
 C      2   1   0   2.518628   124.989     0.000
 C      3   2   1   2.788044   125.213   180.001
 C      4   3   2   2.850406   119.373     0.000
 O      4   3   2   2.291565   119.700   180.011
 H      1   2   3   2.068948   110.687   238.826
 H      1   2   3   2.068948   110.687   121.172
 H      1   2   3   2.060909   111.768     0.000
 H      2   1   3   2.056163   116.106   180.000
 H      3   2   1   2.054001   120.760     0.000
 H      5   4   3   2.065520   110.880    59.662
 H      5   4   3   2.065522   110.881   300.355
 H      5   4   3   2.056296   108.756   180.008



           ************************************************************
           *        Program running with 2 parallel MPI-processes     *
           *              working on a common directory               *
           ************************************************************
------------------------------------------------------------------------------
                           ORCA GTO INTEGRAL CALCULATION
                           -- RI-GTO INTEGRALS CHOSEN --
------------------------------------------------------------------------------

                         BASIS SET STATISTICS AND STARTUP INFO

Gaussian basis set:
 # of primitive gaussian shells          ...  112
 # of primitive gaussian functions       ...  200
 # of contracted shells                  ...   60
 # of contracted basis functions         ...  124
 Highest angular momentum                ...    2
 Maximum contraction depth               ...    5
Auxiliary gaussian basis set:
 # of primitive gaussian shells          ...  208
 # of primitive gaussian functions       ...  548
 # of contracted shells                  ...  130
 # of contracted aux-basis functions     ...  382
 Highest angular momentum                ...    4
 Maximum contraction depth               ...    7
Ratio of auxiliary to basis functions    ...  3.08
Integral package used                  ... LIBINT
 One Electron integrals                  ... done
 Ordering auxiliary basis shells         ... done
 Integral threshhold             Thresh  ...  1.000e-10
 Primitive cut-off               TCut    ...  1.000e-11
 Pre-screening matrix                    ... done
 Shell pair data                         ... 
 Ordering of the shell pairs             ... done (   0.000 sec) 1737 of 1830 pairs
 Determination of significant pairs      ... done (   0.000 sec)
 Creation of shell pair data             ... done (   0.000 sec)
 Storage of shell pair data              ... done (   0.000 sec)
 Shell pair data done in (   0.001 sec)
 Computing two index integrals           ... done
 Cholesky decomposition of the V-matrix  ... done


Timings:
 Total evaluation time                   ...   0.152 sec (  0.003 min)
 One electron matrix time                ...   0.015 sec (  0.000 min) = 10.0%
 Schwartz matrix evaluation time         ...   0.074 sec (  0.001 min) = 48.9%
 Two index repulsion integral time       ...   0.003 sec (  0.000 min) =  1.9%
 Cholesky decomposition of V             ...   0.002 sec (  0.000 min) =  1.5%
 Three index repulsion integral time     ...   0.000 sec (  0.000 min) =  0.0%

           ************************************************************
           *              Shut down parallel processing               *
           ************************************************************


           ************************************************************
           *        Program running with 2 parallel MPI-processes     *
           *              working on a common directory               *
           ************************************************************
-------------------------------------------------------------------------------
                                 ORCA SCF
-------------------------------------------------------------------------------

------------
SCF SETTINGS
------------
Hamiltonian:
 Density Functional     Method          .... DFT(GTOs)
 Exchange Functional    Exchange        .... PBE
   PBE kappa parameter  XKappa          ....  0.804000
 Correlation Functional Correlation     .... PBE
 LDA part of GGA corr.  LDAOpt          .... PW91-LDA
 Gradients option       PostSCFGGA      .... off
   NL short-range parameter             ....  6.400000
 RI-approximation to the Coulomb term is turned on
   Number of auxiliary basis functions  .... 382


General Settings:
 Integral files         IntName         .... 0741
 Hartree-Fock type      HFTyp           .... RHF
 Total Charge           Charge          ....    0
 Multiplicity           Mult            ....    1
 Number of Electrons    NEL             ....   46
 Basis Dimension        Dim             ....  124
 Nuclear Repulsion      ENuc            ....    218.2614903451 Eh

Convergence Acceleration:
 DIIS                   CNVDIIS         .... on
   Start iteration      DIISMaxIt       ....    12
   Startup error        DIISStart       ....  0.200000
   # of expansion vecs  DIISMaxEq       ....     5
   Bias factor          DIISBfac        ....   1.050
   Max. coefficient     DIISMaxC        ....  10.000
 Newton-Raphson         CNVNR           .... off
 SOSCF                  CNVSOSCF        .... on
   Start iteration      SOSCFMaxIt      ....   150
   Startup grad/error   SOSCFStart      ....  0.003300
 Level Shifting         CNVShift        .... on
   Level shift para.    LevelShift      ....    0.2500
   Turn off err/grad.   ShiftErr        ....    0.0010
 Zerner damping         CNVZerner       .... off
 Static damping         CNVDamp         .... on
   Fraction old density DampFac         ....    0.7000
   Max. Damping (<1)    DampMax         ....    0.9800
   Min. Damping (>=0)   DampMin         ....    0.0000
   Turn off err/grad.   DampErr         ....    0.1000
 Fernandez-Rico         CNVRico         .... off

SCF Procedure:
 Maximum # iterations   MaxIter         ....   125
 SCF integral mode      SCFMode         .... Direct
   Integral package                     .... LIBINT
 Reset frequeny         DirectResetFreq ....    20
 Integral Threshold     Thresh          ....  1.000e-10 Eh
 Primitive CutOff       TCut            ....  1.000e-11 Eh

Convergence Tolerance:
 Convergence Check Mode ConvCheckMode   .... Total+1el-Energy
 Energy Change          TolE            ....  1.000e-06 Eh
 1-El. energy change                    ....  1.000e-03 Eh
 Orbital Gradient       TolG            ....  5.000e-05
 Orbital Rotation angle TolX            ....  5.000e-05
 DIIS Error             TolErr          ....  1.000e-06


Diagonalization of the overlap matrix:
Smallest eigenvalue                        ... 1.099e-03
Time for diagonalization                   ...    0.008 sec
Threshold for overlap eigenvalues          ... 1.000e-08
Number of eigenvalues below threshold      ... 0
Time for construction of square roots      ...    0.003 sec
Total time needed                          ...    0.011 sec

-------------------
DFT GRID GENERATION
-------------------

General Integration Accuracy     IntAcc      ...  4.340
Radial Grid Type                 RadialGrid  ... Gauss-Chebyshev
Angular Grid (max. acc.)         AngularGrid ... Lebedev-110
Angular grid pruning method      GridPruning ... 3 (G Style)
Weight generation scheme         WeightScheme... Becke
Basis function cutoff            BFCut       ...    1.0000e-10
Integration weight cutoff        WCut        ...    1.0000e-14
Grids for H and He will be reduced by one unit

# of grid points (after initial pruning)     ...  16348 (   0.0 sec)
# of grid points (after weights+screening)   ...  15342 (   0.0 sec)
nearest neighbour list constructed           ...    0.0 sec
Grid point re-assignment to atoms done       ...    0.0 sec
Grid point division into batches done        ...    0.0 sec
Reduced shell lists constructed in    0.1 sec

Total number of grid points                  ...    15342
Total number of batches                      ...      247
Average number of points per batch           ...       62
Average number of grid points per atom       ...     1096
Average number of shells per batch           ...    44.92 (74.87%)
Average number of basis functions per batch  ...    91.29 (73.62%)
Average number of large shells per batch     ...    36.66 (81.60%)
Average number of large basis fcns per batch ...    73.90 (80.96%)
Maximum spatial batch extension              ...  17.94, 17.78, 19.43 au
Average spatial batch extension              ...   1.57,  1.57,  1.63 au

Time for grid setup =    0.124 sec

------------------------------
INITIAL GUESS: MODEL POTENTIAL
------------------------------
Loading Hartree-Fock densities                     ... done
Calculating cut-offs                               ... done
Setting up the integral package                    ... done
Initializing the effective Hamiltonian             ... done
Starting the Coulomb interaction                   ... done (   0.0 sec)
Reading the grid                                   ... done
Mapping shells                                     ... done
Starting the XC term evaluation                    ... done (   0.1 sec)
  promolecular density results
     # of electrons  =     45.990010605
     EX              =    -36.041497058
     EC              =     -1.493167806
     EX+EC           =    -37.534664863
Transforming the Hamiltonian                       ... done (   0.0 sec)
Diagonalizing the Hamiltonian                      ... done (   0.0 sec)
Back transforming the eigenvectors                 ... done (   0.0 sec)
Now organizing SCF variables                       ... done
                      ------------------
                      INITIAL GUESS DONE (   0.3 sec)
                      ------------------
--------------
SCF ITERATIONS
--------------
ITER       Energy         Delta-E        Max-DP      RMS-DP      [F,P]     Damp
               ***  Starting incremental Fock matrix formation  ***
  0   -269.8254105082   0.000000000000 0.17669641  0.00432591  0.2243530 0.7000
  1   -269.9173384751  -0.091927966936 0.09695122  0.00274112  0.0782767 0.7000
                               ***Turning on DIIS***
  2   -269.9466544617  -0.029315986641 0.06729108  0.00342281  0.0280428 0.0000
  3   -269.9945899387  -0.047935476947 0.06891244  0.00199874  0.0487361 0.0000
  4   -270.0068016299  -0.012211691243 0.01411086  0.00058810  0.0230866 0.0000
                      *** Initiating the SOSCF procedure ***
                           *** Shutting down DIIS ***
                      *** Re-Reading the Fockian *** 
                      *** Removing any level shift *** 
ITER      Energy       Delta-E        Grad      Rot      Max-DP    RMS-DP
  5   -270.00857863  -0.0017770034  0.000751  0.000751  0.003947  0.000177
               *** Restarting incremental Fock matrix formation ***
  6   -270.00863269  -0.0000540607  0.000501  0.002023  0.002666  0.000127
  7   -270.00862099   0.0000117076  0.001278  0.001510  0.001690  0.000061
  8   -270.00863875  -0.0000177631  0.000228  0.000614  0.001382  0.000044
  9   -270.00863741   0.0000013404  0.000269  0.000654  0.000778  0.000024
 10   -270.00863951  -0.0000021020  0.000152  0.000623  0.000491  0.000020
 11   -270.00863872   0.0000007872  0.000291  0.000418  0.000328  0.000014
                 **** Energy Check signals convergence ****
              ***Rediagonalizing the Fockian in SOSCF/NRSCF***

               *****************************************************
               *                     SUCCESS                       *
               *           SCF CONVERGED AFTER  12 CYCLES          *
               *****************************************************

Setting up the final grid:

General Integration Accuracy     IntAcc      ...  4.670
Radial Grid Type                 RadialGrid  ... Gauss-Chebyshev
Angular Grid (max. acc.)         AngularGrid ... Lebedev-302
Angular grid pruning method      GridPruning ... 3 (G Style)
Weight generation scheme         WeightScheme... Becke
Basis function cutoff            BFCut       ...    1.0000e-10
Integration weight cutoff        WCut        ...    1.0000e-14
Grids for H and He will be reduced by one unit

# of grid points (after initial pruning)     ...  64424 (   0.0 sec)
# of grid points (after weights+screening)   ...  59657 (   0.1 sec)
nearest neighbour list constructed           ...    0.0 sec
Grid point re-assignment to atoms done       ...    0.0 sec
Grid point division into batches done        ...    0.2 sec
Reduced shell lists constructed in    0.4 sec

Total number of grid points                  ...    59657
Total number of batches                      ...      940
Average number of points per batch           ...       63
Average number of grid points per atom       ...     4261
Average number of shells per batch           ...    41.57 (69.29%)
Average number of basis functions per batch  ...    84.15 (67.87%)
Average number of large shells per batch     ...    33.13 (79.70%)
Average number of large basis fcns per batch ...    66.12 (78.57%)
Maximum spatial batch extension              ...  19.06, 17.99, 17.55 au
Average spatial batch extension              ...   1.15,  1.17,  1.15 au

Final grid set up in    0.5 sec
Final integration                            ... done (   0.3 sec)
Change in XC energy                          ...     0.000159182
Integrated number of electrons               ...    46.000011831
Previous integrated no of electrons          ...    45.998508754

----------------
TOTAL SCF ENERGY
----------------

Total Energy       :         -270.00848051 Eh           -7347.30428 eV

Components:
Nuclear Repulsion  :          218.26149035 Eh            5939.19710 eV
Electronic Energy  :         -488.26997086 Eh          -13286.50138 eV

One Electron Energy:         -797.10496033 Eh          -21690.32869 eV
Two Electron Energy:          308.83498948 Eh            8403.82731 eV

Virial components:
Potential Energy   :         -537.52457620 Eh          -14626.78733 eV
Kinetic Energy     :          267.51609569 Eh            7279.48305 eV
Virial Ratio       :            2.00931677


DFT components:
N(Alpha)           :       23.000005915532 electrons
N(Beta)            :       23.000005915532 electrons
N(Total)           :       46.000011831065 electrons
E(X)               :      -36.787518031162 Eh       
E(C)               :       -1.510425670211 Eh       
E(XC)              :      -38.297943701372 Eh       

---------------
SCF CONVERGENCE
---------------

  Last Energy change         ...   -9.6957e-07  Tolerance :   1.0000e-06
  Last MAX-Density change    ...    4.2583e-05  Tolerance :   1.0000e-05
  Last RMS-Density change    ...    1.2298e-06  Tolerance :   1.0000e-06
  Last Orbital Gradient      ...    3.4501e-06  Tolerance :   5.0000e-05
  Last Orbital Rotation      ...    9.6664e-06  Tolerance :   5.0000e-05

             **** THE GBW FILE WAS UPDATED (0741.gbw) ****
             **** DENSITY FILE WAS UPDATED (0741.scfp.tmp) ****
             **** ENERGY FILE WAS UPDATED (0741.en.tmp) ****

                    ********************************
                    * MULLIKEN POPULATION ANALYSIS *
                    ********************************

-----------------------
MULLIKEN ATOMIC CHARGES
-----------------------
   0 C :    0.050097
   1 C :   -0.084679
   2 C :    0.002875
   3 C :   -0.046787
   4 C :    0.016048
   5 O :   -0.167726
   6 H :    0.041196
   7 H :    0.043414
   8 H :    0.030562
   9 H :    0.006042
  10 H :   -0.010774
  11 H :    0.039802
  12 H :    0.041671
  13 H :    0.038259
Sum of atomic charges:   -0.0000000

--------------------------------
MULLIKEN REDUCED ORBITAL CHARGES
--------------------------------
  0 C s       :     2.945849  s :     2.945849
      pz      :     1.009931  p :     2.978809
      px      :     0.957472
      py      :     1.011406
      dz2     :     0.004851  d :     0.025245
      dxz     :     0.005855
      dyz     :     0.003356
      dx2y2   :     0.006192
      dxy     :     0.004992
  1 C s       :     3.177568  s :     3.177568
      pz      :     0.955741  p :     2.872727
      px      :     0.974909
      py      :     0.942077
      dz2     :     0.007455  d :     0.034384
      dxz     :     0.010476
      dyz     :     0.003317
      dx2y2   :     0.005984
      dxy     :     0.007152
  2 C s       :     3.217857  s :     3.217857
      pz      :     0.861822  p :     2.750404
      px      :     0.918665
      py      :     0.969917
      dz2     :     0.007521  d :     0.028863
      dxz     :     0.007679
      dyz     :     0.003693
      dx2y2   :     0.005795
      dxy     :     0.004175
  3 C s       :     3.138350  s :     3.138350
      pz      :     0.998660  p :     2.814741
      px      :     0.964406
      py      :     0.851674
      dz2     :     0.028234  d :     0.093697
      dxz     :     0.022577
      dyz     :     0.014539
      dx2y2   :     0.015848
      dxy     :     0.012499
  4 C s       :     2.924950  s :     2.924950
      pz      :     1.013146  p :     3.037326
      px      :     1.018827
      py      :     1.005353
      dz2     :     0.005221  d :     0.021676
      dxz     :     0.004288
      dyz     :     0.004076
      dx2y2   :     0.005961
      dxy     :     0.002130
  5 O s       :     3.738167  s :     3.738167
      pz      :     1.451979  p :     4.412113
      px      :     1.659161
      py      :     1.300973
      dz2     :     0.004278  d :     0.017446
      dxz     :     0.004824
      dyz     :     0.003835
      dx2y2   :     0.002093
      dxy     :     0.002415
  6 H s       :     0.934330  s :     0.934330
      pz      :     0.005822  p :     0.024474
      px      :     0.005571
      py      :     0.013081
  7 H s       :     0.932143  s :     0.932143
      pz      :     0.009743  p :     0.024444
      px      :     0.006580
      py      :     0.008121
  8 H s       :     0.945884  s :     0.945884
      pz      :     0.011984  p :     0.023554
      px      :     0.005247
      py      :     0.006323
  9 H s       :     0.971122  s :     0.971122
      pz      :     0.011842  p :     0.022836
      px      :     0.005330
      py      :     0.005664
 10 H s       :     0.987835  s :     0.987835
      pz      :     0.012268  p :     0.022939
      px      :     0.004822
      py      :     0.005849
 11 H s       :     0.935520  s :     0.935520
      pz      :     0.010613  p :     0.024678
      px      :     0.006250
      py      :     0.007815
 12 H s       :     0.933736  s :     0.933736
      pz      :     0.005520  p :     0.024593
      px      :     0.005696
      py      :     0.013377
 13 H s       :     0.938421  s :     0.938421
      pz      :     0.004458  p :     0.023320
      px      :     0.013604
      py      :     0.005257


                     *******************************
                     * LOEWDIN POPULATION ANALYSIS *
                     *******************************

----------------------
LOEWDIN ATOMIC CHARGES
----------------------
   0 C :   -0.059786
   1 C :    0.002223
   2 C :   -0.071662
   3 C :    0.042345
   4 C :   -0.092864
   5 O :   -0.127681
   6 H :    0.044036
   7 H :    0.044724
   8 H :    0.035458
   9 H :    0.026223
  10 H :    0.031979
  11 H :    0.042433
  12 H :    0.042637
  13 H :    0.039936

-------------------------------
LOEWDIN REDUCED ORBITAL CHARGES
-------------------------------
  0 C s       :     2.830676  s :     2.830676
      pz      :     1.069603  p :     3.158668
      px      :     1.024406
      py      :     1.064658
      dz2     :     0.014608  d :     0.070442
      dxz     :     0.014569
      dyz     :     0.009606
      dx2y2   :     0.019250
      dxy     :     0.012407
  1 C s       :     2.876332  s :     2.876332
      pz      :     1.050761  p :     3.031936
      px      :     1.045783
      py      :     0.935392
      dz2     :     0.021086  d :     0.089509
      dxz     :     0.027809
      dyz     :     0.008905
      dx2y2   :     0.016421
      dxy     :     0.015289
  2 C s       :     2.886630  s :     2.886630
      pz      :     1.053099  p :     3.099644
      px      :     1.044678
      py      :     1.001867
      dz2     :     0.021858  d :     0.085389
      dxz     :     0.024310
      dyz     :     0.009923
      dx2y2   :     0.018047
      dxy     :     0.011251
  3 C s       :     2.875492  s :     2.875492
      pz      :     0.994806  p :     2.864208
      px      :     1.033362
      py      :     0.836040
      dz2     :     0.066162  d :     0.217954
      dxz     :     0.055115
      dyz     :     0.031931
      dx2y2   :     0.037494
      dxy     :     0.027253
  4 C s       :     2.847152  s :     2.847152
      pz      :     1.049441  p :     3.181799
      px      :     1.069558
      py      :     1.062800
      dz2     :     0.015907  d :     0.063913
      dxz     :     0.012443
      dyz     :     0.012174
      dx2y2   :     0.018022
      dxy     :     0.005367
  5 O s       :     3.547956  s :     3.547956
      pz      :     1.531569  p :     4.549003
      px      :     1.696531
      py      :     1.320902
      dz2     :     0.007082  d :     0.030722
      dxz     :     0.009651
      dyz     :     0.006763
      dx2y2   :     0.003186
      dxy     :     0.004040
  6 H s       :     0.889265  s :     0.889265
      pz      :     0.013288  p :     0.066700
      px      :     0.015759
      py      :     0.037653
  7 H s       :     0.888564  s :     0.888564
      pz      :     0.027294  p :     0.066713
      px      :     0.018973
      py      :     0.020446
  8 H s       :     0.898229  s :     0.898229
      pz      :     0.034869  p :     0.066313
      px      :     0.015255
      py      :     0.016189
  9 H s       :     0.903912  s :     0.903912
      pz      :     0.035081  p :     0.069865
      px      :     0.017887
      py      :     0.016897
 10 H s       :     0.898316  s :     0.898316
      pz      :     0.036669  p :     0.069705
      px      :     0.015345
      py      :     0.017691
 11 H s       :     0.888453  s :     0.888453
      pz      :     0.032168  p :     0.069115
      px      :     0.016550
      py      :     0.020396
 12 H s       :     0.888204  s :     0.888204
      pz      :     0.015402  p :     0.069160
      px      :     0.014444
      py      :     0.039313
 13 H s       :     0.891613  s :     0.891613
      pz      :     0.012933  p :     0.068451
      px      :     0.042216
      py      :     0.013302


                      *****************************
                      * MAYER POPULATION ANALYSIS *
                      *****************************

  NA   - Mulliken gross atomic population
  ZA   - Total nuclear charge
  QA   - Mulliken gross atomic charge
  VA   - Mayer's total valence
  BVA  - Mayer's bonded valence
  FA   - Mayer's free valence

  ATOM       NA         ZA         QA         VA         BVA        FA
  0 C      5.9499     6.0000     0.0501     3.9222     3.9222    -0.0000
  1 C      6.0847     6.0000    -0.0847     3.9696     3.9696     0.0000
  2 C      5.9971     6.0000     0.0029     3.7802     3.7802     0.0000
  3 C      6.0468     6.0000    -0.0468     4.3370     4.3370    -0.0000
  4 C      5.9840     6.0000     0.0160     3.8593     3.8593    -0.0000
  5 O      8.1677     8.0000    -0.1677     2.3041     2.3041     0.0000
  6 H      0.9588     1.0000     0.0412     0.9872     0.9872    -0.0000
  7 H      0.9566     1.0000     0.0434     0.9878     0.9878     0.0000
  8 H      0.9694     1.0000     0.0306     0.9977     0.9977     0.0000
  9 H      0.9940     1.0000     0.0060     1.0001     1.0001     0.0000
 10 H      1.0108     1.0000    -0.0108     1.0143     1.0143    -0.0000
 11 H      0.9602     1.0000     0.0398     0.9962     0.9962    -0.0000
 12 H      0.9583     1.0000     0.0417     0.9955     0.9955     0.0000
 13 H      0.9617     1.0000     0.0383     1.0232     1.0232    -0.0000

  Mayer bond orders larger than 0.1
B(  0-C ,  1-C ) :   1.0886 B(  0-C ,  6-H ) :   0.9413 B(  0-C ,  7-H ) :   0.9406 
B(  0-C ,  8-H ) :   0.9627 B(  1-C ,  2-C ) :   1.7905 B(  1-C ,  9-H ) :   0.9355 
B(  2-C ,  3-C ) :   1.0172 B(  2-C , 10-H ) :   0.9596 B(  3-C ,  4-C ) :   1.0585 
B(  3-C ,  5-O ) :   2.1179 B(  4-C , 11-H ) :   0.9313 B(  4-C , 12-H ) :   0.9318 
B(  4-C , 13-H ) :   0.9436 


 *********************************** NBO 6.0 ***********************************
             N A T U R A L   A T O M I C   O R B I T A L   A N D
          N A T U R A L   B O N D   O R B I T A L   A N A L Y S I S
 ***************************** Kiya KiyaLu (100703) ****************************
  (c) Copyright 1996-2015 Board of Regents of the University of Wisconsin System
      on behalf of the Theoretical Chemistry Institute.  All rights reserved.

          Cite this program as:

          NBO 6.0.  E. D. Glendening, J. K. Badenhoop, A. E. Reed,
          J. E. Carpenter, J. A. Bohmann, C. M. Morales, C. R. Landis,
          and F. Weinhold (Theoretical Chemistry Institute, University
          of Wisconsin, Madison, WI, 2013); http://nbo6.chem.wisc.edu/

       /NPA    / : Natural Population Analysis
       /NBO    / : Natural Bond Orbital Analysis
       /AONBO  / : Write the AO to NBO transformation to lfn77
       /FILE   / : Set to 0741

 Filename set to 0741

 Job title:  *** NBO job generated by orca_scf

 Warning: MOs are non-orthogonal; program will continue

 Warning: -2683.97776 electrons reside outside the linearly independent MO space


 NATURAL POPULATIONS:  Natural atomic orbital occupancies

  NAO Atom No lang   Type(AO)    Occupancy      Energy
 -------------------------------------------------------
   1    C  1  s      Cor( 1s)     1.99916      -9.79325
   2    C  1  s      Val( 2s)     1.09177      -0.23144
   3    C  1  s      Ryd( 3s)     0.00031       0.81110
   4    C  1  px     Val( 2p)     1.10302      -0.08349
   5    C  1  px     Ryd( 3p)     0.00098       0.45416
   6    C  1  py     Val( 2p)     1.23035      -0.08708
   7    C  1  py     Ryd( 3p)     0.00125       0.53314
   8    C  1  pz     Val( 2p)     1.24060      -0.08510
   9    C  1  pz     Ryd( 3p)     0.00252       0.56299
  10    C  1  dxy    Ryd( 3d)     0.00042       2.09285
  11    C  1  dxz    Ryd( 3d)     0.00047       2.16325
  12    C  1  dyz    Ryd( 3d)     0.00037       2.18834
  13    C  1  dx2y2  Ryd( 3d)     0.00057       2.26459
  14    C  1  dz2    Ryd( 3d)     0.00048       2.24802

  15    C  2  s      Cor( 1s)     1.99891      -9.79666
  16    C  2  s      Val( 2s)     0.95608      -0.16529
  17    C  2  s      Ryd( 3s)     0.00116       0.50917
  18    C  2  px     Val( 2p)     1.07324      -0.06138
  19    C  2  px     Ryd( 3p)     0.00315       0.76856
  20    C  2  py     Val( 2p)     0.96664      -0.11545
  21    C  2  py     Ryd( 3p)     0.00161       0.54309
  22    C  2  pz     Val( 2p)     1.13889      -0.06779
  23    C  2  pz     Ryd( 3p)     0.00258       0.72370
  24    C  2  dxy    Ryd( 3d)     0.00063       1.94281
  25    C  2  dxz    Ryd( 3d)     0.00087       2.28091
  26    C  2  dyz    Ryd( 3d)     0.00042       2.05011
  27    C  2  dx2y2  Ryd( 3d)     0.00057       2.10917
  28    C  2  dz2    Ryd( 3d)     0.00057       2.16229

  29    C  3  s      Cor( 1s)     1.99879      -9.77014
  30    C  3  s      Val( 2s)     0.98068      -0.15029
  31    C  3  s      Ryd( 3s)     0.00400       0.51441
  32    C  3  px     Val( 2p)     1.10167      -0.05996
  33    C  3  px     Ryd( 3p)     0.00475       0.68959
  34    C  3  py     Val( 2p)     1.04848      -0.10596
  35    C  3  py     Ryd( 3p)     0.00175       0.58763
  36    C  3  pz     Val( 2p)     1.16896      -0.06444
  37    C  3  pz     Ryd( 3p)     0.00559       0.84699
  38    C  3  dxy    Ryd( 3d)     0.00032       1.93407
  39    C  3  dxz    Ryd( 3d)     0.00069       2.26845
  40    C  3  dyz    Ryd( 3d)     0.00050       2.05832
  41    C  3  dx2y2  Ryd( 3d)     0.00061       2.11889
  42    C  3  dz2    Ryd( 3d)     0.00062       2.16951

  43    C  4  s      Cor( 1s)     1.99913      -9.85591
  44    C  4  s      Val( 2s)     0.81985      -0.12819
  45    C  4  s      Ryd( 3s)     0.00392       0.51599
  46    C  4  px     Val( 2p)     0.96158      -0.03241
  47    C  4  px     Ryd( 3p)     0.00835       0.65507
  48    C  4  py     Val( 2p)     0.79601      -0.10347
  49    C  4  py     Ryd( 3p)     0.00427       0.55568
  50    C  4  pz     Val( 2p)     0.86454      -0.03356
  51    C  4  pz     Ryd( 3p)     0.01292       0.71040
  52    C  4  dxy    Ryd( 3d)     0.00130       1.93420
  53    C  4  dxz    Ryd( 3d)     0.00194       2.27070
  54    C  4  dyz    Ryd( 3d)     0.00157       2.03120
  55    C  4  dx2y2  Ryd( 3d)     0.00170       2.12865
  56    C  4  dz2    Ryd( 3d)     0.00291       2.14104

  57    C  5  s      Cor( 1s)     1.99916      -9.78041
  58    C  5  s      Val( 2s)     1.11821      -0.23218
  59    C  5  s      Ryd( 3s)     0.00093       0.84162
  60    C  5  px     Val( 2p)     1.23722      -0.08211
  61    C  5  px     Ryd( 3p)     0.00260       0.64294
  62    C  5  py     Val( 2p)     1.22206      -0.08122
  63    C  5  py     Ryd( 3p)     0.00056       0.54014
  64    C  5  pz     Val( 2p)     1.16325      -0.08384
  65    C  5  pz     Ryd( 3p)     0.00121       0.47065
  66    C  5  dxy    Ryd( 3d)     0.00029       2.06549
  67    C  5  dxz    Ryd( 3d)     0.00052       2.12815
  68    C  5  dyz    Ryd( 3d)     0.00036       2.15600
  69    C  5  dx2y2  Ryd( 3d)     0.00057       2.40492
  70    C  5  dz2    Ryd( 3d)     0.00043       2.21779

  71    O  6  s      Cor( 1s)     1.99973     -18.48205
  72    O  6  s      Val( 2s)     1.68525      -0.78339
  73    O  6  s      Ryd( 3s)     0.00098       1.42002
  74    O  6  px     Val( 2p)     1.80138      -0.21712
  75    O  6  px     Ryd( 3p)     0.00251       1.11950
  76    O  6  py     Val( 2p)     1.37537      -0.22482
  77    O  6  py     Ryd( 3p)     0.00065       1.00400
  78    O  6  pz     Val( 2p)     1.64289      -0.24012
  79    O  6  pz     Ryd( 3p)     0.00140       1.04843
  80    O  6  dxy    Ryd( 3d)     0.00093       2.70169
  81    O  6  dxz    Ryd( 3d)     0.00190       2.95882
  82    O  6  dyz    Ryd( 3d)     0.00150       2.81370
  83    O  6  dx2y2  Ryd( 3d)     0.00092       2.67776
  84    O  6  dz2    Ryd( 3d)     0.00186       2.81107

  85    H  7  s      Val( 1s)     0.75650       0.04946
  86    H  7  s      Ryd( 2s)     0.00160       0.31622
  87    H  7  px     Ryd( 2p)     0.00021       1.70640
  88    H  7  py     Ryd( 2p)     0.00077       2.21541
  89    H  7  pz     Ryd( 2p)     0.00017       1.71282

  90    H  8  s      Val( 1s)     0.75592       0.04989
  91    H  8  s      Ryd( 2s)     0.00151       0.31760
  92    H  8  px     Ryd( 2p)     0.00029       1.78900
  93    H  8  py     Ryd( 2p)     0.00035       1.87937
  94    H  8  pz     Ryd( 2p)     0.00047       2.00682

  95    H  9  s      Val( 1s)     0.76775       0.05645
  96    H  9  s      Ryd( 2s)     0.00169       0.33188
  97    H  9  px     Ryd( 2p)     0.00019       1.72935
  98    H  9  py     Ryd( 2p)     0.00021       1.75003
  99    H  9  pz     Ryd( 2p)     0.00065       2.15646

 100    H 10  s      Val( 1s)     0.78583       0.05095
 101    H 10  s      Ryd( 2s)     0.00251       0.35295
 102    H 10  px     Ryd( 2p)     0.00019       1.90869
 103    H 10  py     Ryd( 2p)     0.00026       1.67610
 104    H 10  pz     Ryd( 2p)     0.00074       2.13951

 105    H 11  s      Val( 1s)     0.76557       0.07026
 106    H 11  s      Ryd( 2s)     0.00399       0.33037
 107    H 11  px     Ryd( 2p)     0.00016       1.92646
 108    H 11  py     Ryd( 2p)     0.00025       1.70169
 109    H 11  pz     Ryd( 2p)     0.00075       2.16703

 110    H 12  s      Val( 1s)     0.75711       0.05134
 111    H 12  s      Ryd( 2s)     0.00157       0.34240
 112    H 12  px     Ryd( 2p)     0.00021       1.77301
 113    H 12  py     Ryd( 2p)     0.00035       1.87133
 114    H 12  pz     Ryd( 2p)     0.00059       2.07108

 115    H 13  s      Val( 1s)     0.75689       0.05160
 116    H 13  s      Ryd( 2s)     0.00158       0.34254
 117    H 13  px     Ryd( 2p)     0.00016       1.71949
 118    H 13  py     Ryd( 2p)     0.00082       2.25656
 119    H 13  pz     Ryd( 2p)     0.00020       1.70123

 120    H 14  s      Val( 1s)     0.74779       0.07589
 121    H 14  s      Ryd( 2s)     0.00345       0.32901
 122    H 14  px     Ryd( 2p)     0.00081       2.29527
 123    H 14  py     Ryd( 2p)     0.00013       1.70500
 124    H 14  pz     Ryd( 2p)     0.00015       1.70041

   1 low occupancy (<1.9990e) core orbital  found on  C  2
   1 low occupancy (<1.9990e) core orbital  found on  C  3


 Summary of Natural Population Analysis:

                                     Natural Population
             Natural    ---------------------------------------------
  Atom No    Charge        Core      Valence    Rydberg      Total
 --------------------------------------------------------------------
    C  1   -0.67227      1.99916     4.66574    0.00738     6.67227
    C  2   -0.14531      1.99891     4.13484    0.01156     6.14531
    C  3   -0.31742      1.99879     4.29980    0.01883     6.31742
    C  4    0.52001      1.99913     3.44198    0.03888     5.47999
    C  5   -0.74736      1.99916     4.74074    0.00746     6.74736
    O  6   -0.51728      1.99973     6.50489    0.01266     8.51728
    H  7    0.24075      0.00000     0.75650    0.00275     0.75925
    H  8    0.24145      0.00000     0.75592    0.00263     0.75855
    H  9    0.22951      0.00000     0.76775    0.00274     0.77049
    H 10    0.21047      0.00000     0.78583    0.00370     0.78953
    H 11    0.22928      0.00000     0.76557    0.00515     0.77072
    H 12    0.24016      0.00000     0.75711    0.00272     0.75984
    H 13    0.24035      0.00000     0.75689    0.00276     0.75965
    H 14    0.24767      0.00000     0.74779    0.00454     0.75233
 ====================================================================
 * Total *  0.00000     11.99488    33.88135    0.12376    46.00000

                                 Natural Population
 ---------------------------------------------------------
   Core                      11.99488 ( 99.9574% of   12)
   Valence                   33.88135 ( 99.6510% of   34)
   Natural Minimal Basis     45.87623 ( 99.7309% of   46)
   Natural Rydberg Basis      0.12376 (  0.2691% of   46)
 ---------------------------------------------------------

    Atom No         Natural Electron Configuration
 ----------------------------------------------------------------------------
      C  1      [core]2s( 1.09)2p( 3.57)
      C  2      [core]2s( 0.96)2p( 3.18)3p( 0.01)
      C  3      [core]2s( 0.98)2p( 3.32)3p( 0.01)
      C  4      [core]2s( 0.82)2p( 2.62)3p( 0.03)3d( 0.01)
      C  5      [core]2s( 1.12)2p( 3.62)
      O  6      [core]2s( 1.69)2p( 4.82)3d( 0.01)
      H  7            1s( 0.76)
      H  8            1s( 0.76)
      H  9            1s( 0.77)
      H 10            1s( 0.79)
      H 11            1s( 0.77)
      H 12            1s( 0.76)
      H 13            1s( 0.76)
      H 14            1s( 0.75)


 NATURAL BOND ORBITAL ANALYSIS:

                            Occupancies       Lewis Structure    Low   High
         Max    Occ     -------------------  -----------------   occ   occ
  Cycle  Ctr   Thresh    Lewis   non-Lewis     CR  BD  nC  LP    (L)   (NL)
 ============================================================================
    1     2     1.90    44.56251   1.43749      6  14   0   3     2      2
    2     2     1.88    44.56390   1.43610      6  14   0   3     1      2
    3     2     1.87    45.41704   0.58296      6  15   0   2     0      1
 ----------------------------------------------------------------------------

 Structure accepted: No low occupancy Lewis orbitals

 -------------------------------------------------------
   Core                     11.99488 ( 99.957% of  12)
   Valence Lewis            33.42216 ( 98.300% of  34)
  ==================      =============================
   Total Lewis              45.41704 ( 98.733% of  46)
  -----------------------------------------------------
   Valence non-Lewis         0.49382 (  1.074% of  46)
   Rydberg non-Lewis         0.08914 (  0.194% of  46)
  ==================      =============================
   Total non-Lewis           0.58296 (  1.267% of  46)
 -------------------------------------------------------


     (Occupancy)   Bond orbital / Coefficients / Hybrids
 ------------------ Lewis ------------------------------------------------------
   1. (1.99916) CR ( 1) C  1            s(100.00%)
                                         1.0000  0.0000  0.0000  0.0000  0.0000
                                         0.0000  0.0000  0.0000  0.0000  0.0000
                                         0.0000  0.0000  0.0000  0.0000
   2. (1.99891) CR ( 1) C  2            s(100.00%)
                                         1.0000  0.0000  0.0000  0.0000  0.0000
                                         0.0000  0.0000  0.0000  0.0000  0.0000
                                         0.0000  0.0000  0.0000  0.0000
   3. (1.99879) CR ( 1) C  3            s(100.00%)
                                         1.0000  0.0000  0.0000  0.0000  0.0000
                                         0.0000  0.0000  0.0000  0.0000  0.0000
                                         0.0000  0.0000  0.0000  0.0000
   4. (1.99913) CR ( 1) C  4            s(100.00%)
                                         1.0000  0.0000  0.0000  0.0000  0.0000
                                         0.0000  0.0000  0.0000  0.0000  0.0000
                                         0.0000  0.0000  0.0000  0.0000
   5. (1.99916) CR ( 1) C  5            s(100.00%)
                                         1.0000  0.0000  0.0000  0.0000  0.0000
                                         0.0000  0.0000  0.0000  0.0000  0.0000
                                         0.0000  0.0000  0.0000  0.0000
   6. (1.99973) CR ( 1) O  6            s(100.00%)
                                         1.0000  0.0000  0.0000  0.0000  0.0000
                                         0.0000  0.0000  0.0000  0.0000  0.0000
                                         0.0000  0.0000  0.0000  0.0000
   7. (1.97544) LP ( 1) O  6            s( 55.17%)p 0.81( 44.80%)d 0.00(  0.03%)
                                         0.0000  0.7426 -0.0122  0.3729 -0.0020
                                        -0.2549  0.0011 -0.4940  0.0016  0.0063
                                         0.0107 -0.0100 -0.0050 -0.0060
   8. (1.88565) LP ( 2) O  6            s(  0.01%)p99.99( 99.88%)d 7.15(  0.10%)
                                         0.0000  0.0115 -0.0030 -0.8312  0.0146
                                        -0.1445  0.0023 -0.5355  0.0088 -0.0077
                                        -0.0107 -0.0099  0.0160 -0.0219
   9. (1.98417) BD ( 1) C  1- C  2
               ( 49.96%)   0.7068* C  1 s( 30.47%)p 2.28( 69.49%)d 0.00(  0.04%)
                                         0.0000  0.5520  0.0053  0.8283  0.0035
                                        -0.0558  0.0027  0.0754  0.0059 -0.0016
                                         0.0042 -0.0006  0.0164 -0.0094
               ( 50.04%)   0.7074* C  2 s( 33.67%)p 1.97( 66.29%)d 0.00(  0.04%)
                                         0.0000  0.5802  0.0104 -0.8087 -0.0036
                                         0.0549  0.0086 -0.0739  0.0184 -0.0021
                                         0.0040  0.0019  0.0173 -0.0075
  10. (1.96842) BD ( 1) C  1- H  7
               ( 61.84%)   0.7864* C  1 s( 22.72%)p 3.40( 77.24%)d 0.00(  0.03%)
                                         0.0000  0.4767 -0.0004 -0.2676 -0.0100
                                         0.8341 -0.0040  0.0704 -0.0049 -0.0063
                                        -0.0016  0.0040 -0.0140 -0.0094
               ( 38.16%)   0.6177* H  7 s( 99.90%)p 0.00(  0.10%)
                                         0.9995 -0.0018  0.0110 -0.0300 -0.0018
  11. (1.96825) BD ( 1) C  1- H  8
               ( 61.87%)   0.7866* C  1 s( 22.73%)p 3.40( 77.23%)d 0.00(  0.04%)
                                         0.0000  0.4768 -0.0007 -0.4057 -0.0097
                                        -0.4560  0.0008  0.6321 -0.0076  0.0056
                                        -0.0099 -0.0135 -0.0017  0.0073
               ( 38.13%)   0.6175* H  8 s( 99.91%)p 0.00(  0.09%)
                                         0.9995 -0.0017  0.0152  0.0161 -0.0211
  12. (1.98785) BD ( 1) C  1- H  9
               ( 61.60%)   0.7848* C  1 s( 24.06%)p 3.16( 75.91%)d 0.00(  0.03%)
                                         0.0000  0.4905 -0.0031 -0.2774 -0.0137
                                        -0.3045  0.0046 -0.7676  0.0082  0.0030
                                         0.0075  0.0100 -0.0006  0.0125
               ( 38.40%)   0.6197* H  9 s( 99.90%)p 0.00(  0.10%)
                                         0.9995 -0.0019  0.0109  0.0105  0.0270
  13. (1.98162) BD ( 1) C  2- C  3
               ( 50.02%)   0.7072* C  2 s( 39.39%)p 1.54( 60.56%)d 0.00(  0.05%)
                                         0.0000  0.6276  0.0095  0.4802  0.0121
                                        -0.2864 -0.0032 -0.5411 -0.0062 -0.0088
                                        -0.0156  0.0111  0.0070  0.0053
               ( 49.98%)   0.7070* C  3 s( 39.50%)p 1.53( 60.44%)d 0.00(  0.06%)
                                         0.0000  0.6280  0.0255 -0.4801 -0.0246
                                         0.2881  0.0020  0.5389 -0.0008 -0.0089
                                        -0.0157  0.0125  0.0068  0.0067
  14. (1.87753) BD ( 2) C  2- C  3
               ( 47.36%)   0.6882* C  2 s(  0.00%)p 1.00( 99.93%)d 0.00(  0.06%)
                                         0.0000 -0.0006  0.0032  0.0977  0.0009
                                         0.9122 -0.0168 -0.3967  0.0030  0.0129
                                        -0.0079 -0.0127  0.0102  0.0124
               ( 52.64%)   0.7255* C  3 s(  0.00%)p 1.00( 99.95%)d 0.00(  0.05%)
                                         0.0000 -0.0008 -0.0022  0.0988  0.0012
                                         0.9117 -0.0106 -0.3981 -0.0006 -0.0052
                                         0.0047  0.0140 -0.0091 -0.0134
  15. (1.97326) BD ( 1) C  2- H 10
               ( 60.84%)   0.7800* C  2 s( 26.94%)p 2.71( 73.03%)d 0.00(  0.03%)
                                         0.0000  0.5187 -0.0180  0.3241 -0.0105
                                         0.2863  0.0012  0.7370 -0.0005  0.0039
                                         0.0110  0.0092  0.0020  0.0108
               ( 39.16%)   0.6257* H 10 s( 99.89%)p 0.00(  0.11%)
                                         0.9995 -0.0041 -0.0125 -0.0107 -0.0281
  16. (1.97989) BD ( 1) C  3- C  4
               ( 51.66%)   0.7187* C  3 s( 32.82%)p 2.05( 67.13%)d 0.00(  0.04%)
                                         0.0000  0.5729  0.0015  0.8130 -0.0017
                                        -0.0511 -0.0098  0.0839 -0.0238 -0.0015
                                         0.0057  0.0016  0.0182 -0.0080
               ( 48.34%)   0.6953* C  4 s( 35.15%)p 1.84( 64.81%)d 0.00(  0.04%)
                                         0.0000  0.5928 -0.0117 -0.7988  0.0095
                                         0.0494 -0.0102 -0.0827 -0.0210 -0.0020
                                         0.0039 -0.0011  0.0174 -0.0108
  17. (1.97276) BD ( 1) C  3- H 11
               ( 61.79%)   0.7861* C  3 s( 27.68%)p 2.61( 72.30%)d 0.00(  0.03%)
                                         0.0000  0.5259 -0.0155 -0.3126  0.0077
                                        -0.2874 -0.0009 -0.7366  0.0021  0.0028
                                         0.0086  0.0091  0.0020  0.0104
               ( 38.21%)   0.6181* H 11 s( 99.89%)p 0.00(  0.11%)
                                         0.9995 -0.0050  0.0108  0.0113  0.0286
  18. (1.98768) BD ( 1) C  4- C  5
               ( 48.18%)   0.6941* C  4 s( 34.33%)p 1.91( 65.63%)d 0.00(  0.04%)
                                         0.0000  0.5858 -0.0113  0.3818  0.0187
                                         0.2509 -0.0087  0.6685 -0.0171  0.0052
                                         0.0132  0.0090  0.0007  0.0115
               ( 51.82%)   0.7199* C  5 s( 28.91%)p 2.46( 71.05%)d 0.00(  0.04%)
                                         0.0000  0.5376 -0.0034 -0.3845  0.0115
                                        -0.2647 -0.0025 -0.7017 -0.0040  0.0054
                                         0.0139  0.0083  0.0016  0.0103
  19. (1.99413) BD ( 1) C  4- O  6
               ( 33.56%)   0.5793* C  4 s( 30.18%)p 2.31( 69.63%)d 0.01(  0.19%)
                                         0.0000  0.5483  0.0347  0.4526  0.0409
                                        -0.3185 -0.0240 -0.6212 -0.0424 -0.0156
                                        -0.0305  0.0221  0.0052  0.0155
               ( 66.44%)   0.8151* O  6 s( 44.83%)p 1.23( 55.00%)d 0.00(  0.17%)
                                         0.0000  0.6692  0.0207 -0.3987 -0.0103
                                         0.2856  0.0070  0.5559  0.0149 -0.0150
                                        -0.0306  0.0196  0.0030  0.0140
  20. (1.95846) BD ( 2) C  4- O  6
               ( 35.22%)   0.5935* C  4 s(  0.00%)p 1.00( 99.74%)d 0.00(  0.26%)
                                         0.0000  0.0007  0.0014 -0.0970  0.0024
                                        -0.9109  0.0259  0.3968 -0.0081 -0.0213
                                         0.0140  0.0281 -0.0207 -0.0273
               ( 64.78%)   0.8049* O  6 s(  0.00%)p 1.00( 99.84%)d 0.00(  0.16%)
                                         0.0000  0.0006  0.0012 -0.0977 -0.0018
                                        -0.9114 -0.0149  0.3974  0.0064  0.0184
                                        -0.0119 -0.0214  0.0163  0.0210
  21. (1.97054) BD ( 1) C  5- H 12
               ( 61.77%)   0.7859* C  5 s( 23.35%)p 3.28( 76.61%)d 0.00(  0.04%)
                                         0.0000  0.4832  0.0010 -0.2943  0.0133
                                        -0.4394 -0.0016  0.6972  0.0102  0.0083
                                        -0.0109 -0.0120 -0.0024  0.0061
               ( 38.23%)   0.6183* H 12 s( 99.90%)p 0.00(  0.10%)
                                         0.9995 -0.0013  0.0077  0.0153 -0.0259
  22. (1.97054) BD ( 1) C  5- H 13
               ( 61.78%)   0.7860* C  5 s( 23.36%)p 3.28( 76.61%)d 0.00(  0.03%)
                                         0.0000  0.4833  0.0008 -0.1561  0.0131
                                         0.8504  0.0060  0.1350  0.0069 -0.0090
                                        -0.0007  0.0022 -0.0142 -0.0078
               ( 38.22%)   0.6182* H 13 s( 99.90%)p 0.00(  0.10%)
                                         0.9995 -0.0013  0.0029 -0.0316 -0.0059
  23. (1.98597) BD ( 1) C  5- H 14
               ( 62.48%)   0.7904* C  5 s( 24.35%)p 3.11( 75.62%)d 0.00(  0.03%)
                                         0.0000  0.4934  0.0053  0.8605 -0.0060
                                        -0.1144  0.0041 -0.0507  0.0091 -0.0046
                                        -0.0037  0.0006  0.0139 -0.0080
               ( 37.52%)   0.6126* H 14 s( 99.90%)p 0.00(  0.10%)
                                         0.9995 -0.0016 -0.0316  0.0046  0.0034
 ---------------- non-Lewis ----------------------------------------------------
  24. (0.01276) BD*( 1) C  1- C  2
               ( 50.04%)   0.7074* C  1 s( 30.47%)p 2.28( 69.49%)d 0.00(  0.04%)
                                         0.0000 -0.5520 -0.0053 -0.8283 -0.0035
                                         0.0558 -0.0027 -0.0754 -0.0059  0.0016
                                        -0.0042  0.0006 -0.0164  0.0094
               ( 49.96%)  -0.7068* C  2 s( 33.67%)p 1.97( 66.29%)d 0.00(  0.04%)
                                         0.0000 -0.5802 -0.0104  0.8087  0.0036
                                        -0.0549 -0.0086  0.0739 -0.0184  0.0021
                                        -0.0040 -0.0019 -0.0173  0.0075
  25. (0.01004) BD*( 1) C  1- H  7
               ( 38.16%)   0.6177* C  1 s( 22.72%)p 3.40( 77.24%)d 0.00(  0.03%)
                                         0.0000 -0.4767  0.0004  0.2676  0.0100
                                        -0.8341  0.0040 -0.0704  0.0049  0.0063
                                         0.0016 -0.0040  0.0140  0.0094
               ( 61.84%)  -0.7864* H  7 s( 99.90%)p 0.00(  0.10%)
                                        -0.9995  0.0018 -0.0110  0.0300  0.0018
  26. (0.00993) BD*( 1) C  1- H  8
               ( 38.13%)   0.6175* C  1 s( 22.73%)p 3.40( 77.23%)d 0.00(  0.04%)
                                         0.0000 -0.4768  0.0007  0.4057  0.0097
                                         0.4560 -0.0008 -0.6321  0.0076 -0.0056
                                         0.0099  0.0135  0.0017 -0.0073
               ( 61.87%)  -0.7866* H  8 s( 99.91%)p 0.00(  0.09%)
                                        -0.9995  0.0017 -0.0152 -0.0161  0.0211
  27. (0.00824) BD*( 1) C  1- H  9
               ( 38.40%)   0.6197* C  1 s( 24.06%)p 3.16( 75.91%)d 0.00(  0.03%)
                                         0.0000 -0.4905  0.0031  0.2774  0.0137
                                         0.3045 -0.0046  0.7676 -0.0082 -0.0030
                                        -0.0075 -0.0100  0.0006 -0.0125
               ( 61.60%)  -0.7848* H  9 s( 99.90%)p 0.00(  0.10%)
                                        -0.9995  0.0019 -0.0109 -0.0105 -0.0270
  28. (0.01720) BD*( 1) C  2- C  3
               ( 49.98%)   0.7070* C  2 s( 39.39%)p 1.54( 60.56%)d 0.00(  0.05%)
                                         0.0000 -0.6276 -0.0095 -0.4802 -0.0121
                                         0.2864  0.0032  0.5411  0.0062  0.0088
                                         0.0156 -0.0111 -0.0070 -0.0053
               ( 50.02%)  -0.7072* C  3 s( 39.50%)p 1.53( 60.44%)d 0.00(  0.06%)
                                         0.0000 -0.6280 -0.0255  0.4801  0.0246
                                        -0.2881 -0.0020 -0.5389  0.0008  0.0089
                                         0.0157 -0.0125 -0.0068 -0.0067
  29. (0.07607) BD*( 2) C  2- C  3
               ( 52.64%)   0.7255* C  2 s(  0.00%)p 1.00( 99.93%)d 0.00(  0.06%)
                                         0.0000 -0.0006  0.0032  0.0977  0.0009
                                         0.9122 -0.0168 -0.3967  0.0030  0.0129
                                        -0.0079 -0.0127  0.0102  0.0124
               ( 47.36%)  -0.6882* C  3 s(  0.00%)p 1.00( 99.95%)d 0.00(  0.05%)
                                         0.0000 -0.0008 -0.0022  0.0988  0.0012
                                         0.9117 -0.0106 -0.3981 -0.0006 -0.0052
                                         0.0047  0.0140 -0.0091 -0.0134
  30. (0.02306) BD*( 1) C  2- H 10
               ( 39.16%)   0.6257* C  2 s( 26.94%)p 2.71( 73.03%)d 0.00(  0.03%)
                                         0.0000 -0.5187  0.0180 -0.3241  0.0105
                                        -0.2863 -0.0012 -0.7370  0.0005 -0.0039
                                        -0.0110 -0.0092 -0.0020 -0.0108
               ( 60.84%)  -0.7800* H 10 s( 99.89%)p 0.00(  0.11%)
                                        -0.9995  0.0041  0.0125  0.0107  0.0281
  31. (0.06375) BD*( 1) C  3- C  4
               ( 48.34%)   0.6953* C  3 s( 32.82%)p 2.05( 67.13%)d 0.00(  0.04%)
                                         0.0000 -0.5729 -0.0015 -0.8130  0.0017
                                         0.0511  0.0098 -0.0839  0.0238  0.0015
                                        -0.0057 -0.0016 -0.0182  0.0080
               ( 51.66%)  -0.7187* C  4 s( 35.15%)p 1.84( 64.81%)d 0.00(  0.04%)
                                         0.0000 -0.5928  0.0117  0.7988 -0.0095
                                        -0.0494  0.0102  0.0827  0.0210  0.0020
                                        -0.0039  0.0011 -0.0174  0.0108
  32. (0.02041) BD*( 1) C  3- H 11
               ( 38.21%)   0.6181* C  3 s( 27.68%)p 2.61( 72.30%)d 0.00(  0.03%)
                                         0.0000 -0.5259  0.0155  0.3126 -0.0077
                                         0.2874  0.0009  0.7366 -0.0021 -0.0028
                                        -0.0086 -0.0091 -0.0020 -0.0104
               ( 61.79%)  -0.7861* H 11 s( 99.89%)p 0.00(  0.11%)
                                        -0.9995  0.0050 -0.0108 -0.0113 -0.0286
  33. (0.06338) BD*( 1) C  4- C  5
               ( 51.82%)   0.7199* C  4 s( 34.33%)p 1.91( 65.63%)d 0.00(  0.04%)
                                         0.0000  0.5858 -0.0113  0.3818  0.0187
                                         0.2509 -0.0087  0.6685 -0.0171  0.0052
                                         0.0132  0.0090  0.0007  0.0115
               ( 48.18%)  -0.6941* C  5 s( 28.91%)p 2.46( 71.05%)d 0.00(  0.04%)
                                         0.0000  0.5376 -0.0034 -0.3845  0.0115
                                        -0.2647 -0.0025 -0.7017 -0.0040  0.0054
                                         0.0139  0.0083  0.0016  0.0103
  34. (0.01428) BD*( 1) C  4- O  6
               ( 66.44%)   0.8151* C  4 s( 30.18%)p 2.31( 69.63%)d 0.01(  0.19%)
                                         0.0000  0.5483  0.0347  0.4526  0.0409
                                        -0.3185 -0.0240 -0.6212 -0.0424 -0.0156
                                        -0.0305  0.0221  0.0052  0.0155
               ( 33.56%)  -0.5793* O  6 s( 44.83%)p 1.23( 55.00%)d 0.00(  0.17%)
                                         0.0000  0.6692  0.0207 -0.3987 -0.0103
                                         0.2856  0.0070  0.5559  0.0149 -0.0150
                                        -0.0306  0.0196  0.0030  0.0140
  35. (0.15469) BD*( 2) C  4- O  6
               ( 64.78%)   0.8049* C  4 s(  0.00%)p 1.00( 99.74%)d 0.00(  0.26%)
                                         0.0000  0.0007  0.0014 -0.0970  0.0024
                                        -0.9109  0.0259  0.3968 -0.0081 -0.0213
                                         0.0140  0.0281 -0.0207 -0.0273
               ( 35.22%)  -0.5935* O  6 s(  0.00%)p 1.00( 99.84%)d 0.00(  0.16%)
                                         0.0000  0.0006  0.0012 -0.0977 -0.0018
                                        -0.9114 -0.0149  0.3974  0.0064  0.0184
                                        -0.0119 -0.0214  0.0163  0.0210
  36. (0.00733) BD*( 1) C  5- H 12
               ( 38.23%)   0.6183* C  5 s( 23.35%)p 3.28( 76.61%)d 0.00(  0.04%)
                                         0.0000 -0.4832 -0.0010  0.2943 -0.0133
                                         0.4394  0.0016 -0.6972 -0.0102 -0.0083
                                         0.0109  0.0120  0.0024 -0.0061
               ( 61.77%)  -0.7859* H 12 s( 99.90%)p 0.00(  0.10%)
                                        -0.9995  0.0013 -0.0077 -0.0153  0.0259
  37. (0.00729) BD*( 1) C  5- H 13
               ( 38.22%)   0.6182* C  5 s( 23.36%)p 3.28( 76.61%)d 0.00(  0.03%)
                                         0.0000 -0.4833 -0.0008  0.1561 -0.0131
                                        -0.8504 -0.0060 -0.1350 -0.0069  0.0090
                                         0.0007 -0.0022  0.0142  0.0078
               ( 61.78%)  -0.7860* H 13 s( 99.90%)p 0.00(  0.10%)
                                        -0.9995  0.0013 -0.0029  0.0316  0.0059
  38. (0.00539) BD*( 1) C  5- H 14
               ( 37.52%)   0.6126* C  5 s( 24.35%)p 3.11( 75.62%)d 0.00(  0.03%)
                                         0.0000 -0.4934 -0.0053 -0.8605  0.0060
                                         0.1144 -0.0041  0.0507 -0.0091  0.0046
                                         0.0037 -0.0006 -0.0139  0.0080
               ( 62.48%)  -0.7904* H 14 s( 99.90%)p 0.00(  0.10%)
                                        -0.9995  0.0016  0.0316 -0.0046 -0.0034
  39. (0.00326) RY ( 1) C  1            s(  3.32%)p26.93( 89.37%)d 2.20(  7.31%)
                                         0.0000  0.0052  0.1821  0.0024  0.2246
                                        -0.0067 -0.4127 -0.0149 -0.8202 -0.1169
                                        -0.2340 -0.0089  0.0198 -0.0648
  40. (0.00122) RY ( 2) C  1            s(  0.29%)p99.99( 67.39%)d99.99( 32.32%)
                                         0.0000  0.0006  0.0537 -0.0005  0.1461
                                         0.0095  0.7409 -0.0052 -0.3216  0.4925
                                        -0.2425 -0.0251  0.1393  0.0428
  41. (0.00049) RY ( 3) C  1            s( 24.31%)p 3.08( 74.94%)d 0.03(  0.75%)
                                         0.0000  0.0105  0.4930 -0.0168  0.8020
                                         0.0006 -0.0136  0.0006  0.3250 -0.0401
                                         0.0570  0.0355  0.0356  0.0098
  42. (0.00008) RY ( 4) C  1            s( 42.63%)p 0.41( 17.36%)d 0.94( 40.01%)
  43. (0.00004) RY ( 5) C  1            s( 15.68%)p 0.46(  7.20%)d 4.92( 77.12%)
  44. (0.00000) RY ( 6) C  1            s(  8.28%)p 1.29( 10.69%)d 9.78( 81.03%)
  45. (0.00000) RY ( 7) C  1            s(  0.35%)p76.57( 26.81%)d99.99( 72.84%)
  46. (0.00000) RY ( 8) C  1            s(  5.13%)p 0.87(  4.47%)d17.62( 90.40%)
  47. (0.00000) RY ( 9) C  1            s(  0.03%)p68.36(  1.89%)d99.99( 98.08%)
  48. (0.00415) RY ( 1) C  2            s(  9.43%)p 8.65( 81.52%)d 0.96(  9.05%)
                                         0.0000 -0.0058  0.3070  0.0131  0.7206
                                         0.0062  0.1450  0.0197  0.5237 -0.0833
                                        -0.1295 -0.0811  0.1489 -0.1951
  49. (0.00199) RY ( 2) C  2            s(  0.44%)p99.99( 90.78%)d19.82(  8.77%)
                                         0.0000  0.0053  0.0663 -0.0150  0.5934
                                         0.0065 -0.1146  0.0052 -0.7364 -0.0071
                                         0.2935  0.0312 -0.0181  0.0151
  50. (0.00172) RY ( 3) C  2            s(  0.02%)p99.99( 73.10%)d99.99( 26.89%)
                                         0.0000  0.0022  0.0130 -0.0068  0.0827
                                        -0.0222 -0.8394  0.0115  0.1370  0.4580
                                        -0.1309 -0.0776  0.1538  0.1107
  51. (0.00025) RY ( 4) C  2            s( 68.46%)p 0.19( 12.77%)d 0.27( 18.77%)
                                         0.0000 -0.0033  0.8274  0.0004 -0.2360
                                         0.0058 -0.0780  0.0222 -0.2557 -0.1609
                                        -0.3929  0.0782  0.0339  0.0116
  52. (0.00022) RY ( 5) C  2            s( 14.95%)p 0.49(  7.26%)d 5.20( 77.79%)
                                         0.0000 -0.0035  0.3867  0.0190 -0.2217
                                        -0.0057  0.0832 -0.0083  0.1265  0.2659
                                         0.7530 -0.0599  0.3444 -0.1345
  53. (0.00013) RY ( 6) C  2            s(  0.02%)p99.99( 27.95%)d99.99( 72.02%)
                                         0.0000  0.0004  0.0158  0.0012 -0.0508
                                         0.0090 -0.4927 -0.0034  0.1847 -0.6999
                                         0.3324  0.1546 -0.2367 -0.2000
  54. (0.00012) RY ( 7) C  2            s(  3.49%)p 1.91(  6.66%)d25.75( 89.85%)
                                         0.0000 -0.0042  0.1867 -0.0082  0.1179
                                        -0.0009  0.0686 -0.0052  0.2190  0.1206
                                         0.1913  0.4373 -0.3878  0.7111
  55. (0.00001) RY ( 8) C  2            s(  3.18%)p 0.03(  0.10%)d30.43( 96.72%)
  56. (0.00000) RY ( 9) C  2            s(  0.00%)p 1.00(  0.06%)d99.99( 99.94%)
  57. (0.00590) RY ( 1) C  3            s(  2.45%)p38.87( 95.16%)d 0.97(  2.39%)
                                         0.0000  0.0136  0.1559  0.0230  0.1240
                                         0.0033  0.3605  0.0017  0.8976  0.0400
                                         0.0601  0.0552 -0.0628  0.1080
  58. (0.00480) RY ( 2) C  3            s( 24.76%)p 2.86( 70.91%)d 0.17(  4.33%)
                                         0.0000 -0.0146  0.4974  0.0087 -0.8351
                                        -0.0115  0.0996 -0.0322  0.0244 -0.0487
                                        -0.0664 -0.0602  0.1138 -0.1411
  59. (0.00274) RY ( 3) C  3            s( 67.92%)p 0.40( 27.29%)d 0.07(  4.79%)
                                         0.0000 -0.0052  0.8241  0.0000  0.4867
                                        -0.0067 -0.1039 -0.0154 -0.1578 -0.0830
                                        -0.1957  0.0464 -0.0081  0.0227
  60. (0.00087) RY ( 4) C  3            s(  0.02%)p99.99( 85.41%)d99.99( 14.57%)
                                         0.0000 -0.0006  0.0141 -0.0014 -0.0839
                                        -0.0132 -0.8504  0.0062  0.3516 -0.2970
                                         0.1588  0.0880 -0.1203 -0.1001
  61. (0.00018) RY ( 5) C  3            s(  0.09%)p99.99( 13.69%)d99.99( 86.23%)
                                         0.0000  0.0002  0.0294 -0.0036  0.0021
                                         0.0102 -0.3425 -0.0019  0.1394  0.7815
                                        -0.1942 -0.2426  0.3796  0.1040
  62. (0.00017) RY ( 6) C  3            s(  1.46%)p 2.26(  3.30%)d65.14( 95.24%)
                                         0.0000  0.0020  0.1209 -0.0194  0.1587
                                         0.0033  0.0789  0.0083 -0.0338  0.0413
                                         0.7544 -0.2054  0.3670 -0.4524
  63. (0.00005) RY ( 7) C  3            s(  2.83%)p 1.53(  4.32%)d32.81( 92.85%)
  64. (0.00001) RY ( 8) C  3            s(  0.48%)p 0.05(  0.02%)d99.99( 99.50%)
  65. (0.00001) RY ( 9) C  3            s(  0.00%)p 1.00(  0.07%)d99.99( 99.93%)
  66. (0.01757) RY ( 1) C  4            s( 10.57%)p 8.43( 89.16%)d 0.03(  0.27%)
                                         0.0000 -0.0624  0.3191 -0.0240  0.4724
                                         0.0137 -0.3698  0.0308 -0.7279  0.0226
                                         0.0456  0.0013 -0.0045  0.0105
  67. (0.00667) RY ( 2) C  4            s(  1.36%)p36.96( 50.26%)d35.58( 48.38%)
                                         0.0000 -0.0028  0.1166 -0.0214  0.5757
                                         0.0017  0.1179 -0.0056  0.3958  0.1650
                                         0.2523  0.2254 -0.3381  0.4774
  68. (0.00290) RY ( 3) C  4            s(  0.13%)p99.99( 42.81%)d99.99( 57.06%)
                                         0.0000  0.0004  0.0361 -0.0065 -0.0686
                                        -0.0504 -0.5892  0.0241  0.2704  0.3298
                                        -0.2223 -0.4009  0.3010  0.4014
  69. (0.00229) RY ( 4) C  4            s( 20.29%)p 1.70( 34.51%)d 2.23( 45.20%)
                                         0.0000  0.0013  0.4505  0.0007  0.4254
                                         0.0103  0.1227  0.0169  0.3856 -0.1780
                                        -0.1859 -0.1872  0.3662 -0.4654
  70. (0.00101) RY ( 5) C  4            s( 39.17%)p 0.31( 12.21%)d 1.24( 48.63%)
                                         0.0000  0.0023  0.6258 -0.0251 -0.3431
                                         0.0186  0.0504  0.0288 -0.0024 -0.1849
                                        -0.4938  0.2772 -0.2247  0.2845
  71. (0.00066) RY ( 6) C  4            s(  0.41%)p32.16( 13.04%)d99.99( 86.56%)
                                         0.0000  0.0023  0.0636  0.0009  0.0050
                                        -0.0052  0.3361 -0.0002 -0.1319  0.8521
                                        -0.2488  0.1911  0.1221 -0.1620
  72. (0.00055) RY ( 7) C  4            s( 25.99%)p 0.51( 13.35%)d 2.33( 60.66%)
                                         0.0000  0.0168  0.5095  0.0085 -0.3636
                                        -0.0046  0.0190 -0.0138  0.0249  0.1533
                                         0.7357 -0.0287  0.2027  0.0044
  73. (0.00001) RY ( 8) C  4            s(  2.41%)p 0.18(  0.44%)d40.25( 97.14%)
  74. (0.00000) RY ( 9) C  4            s(  0.01%)p99.99( 44.43%)d99.99( 55.56%)
  75. (0.00231) RY ( 1) C  5            s( 21.23%)p 3.69( 78.32%)d 0.02(  0.45%)
                                         0.0000  0.0147  0.4605 -0.0167 -0.8710
                                         0.0026  0.0441  0.0033 -0.1498 -0.0152
                                        -0.0034  0.0036  0.0615 -0.0209
  76. (0.00166) RY ( 2) C  5            s( 19.08%)p 3.73( 71.15%)d 0.51(  9.78%)
                                         0.0000  0.0024  0.4368  0.0106  0.3186
                                         0.0010 -0.3614  0.0037 -0.6923 -0.0478
                                        -0.1751  0.1076 -0.1521  0.1735
  77. (0.00051) RY ( 3) C  5            s(  0.00%)p 1.00( 61.15%)d 0.64( 38.85%)
                                         0.0000  0.0002  0.0066 -0.0012 -0.0925
                                        -0.0028 -0.7058  0.0010  0.3237  0.1650
                                         0.0027  0.4152 -0.1823 -0.3945
  78. (0.00011) RY ( 4) C  5            s( 26.89%)p 1.24( 33.30%)d 1.48( 39.81%)
                                         0.0000 -0.0099  0.5184 -0.0070  0.1991
                                        -0.0060  0.1933 -0.0168  0.5056 -0.2404
                                        -0.5774  0.0578 -0.0582  0.0143
  79. (0.00006) RY ( 5) C  5            s( 31.47%)p 0.35( 11.08%)d 1.83( 57.46%)
  80. (0.00002) RY ( 6) C  5            s(  0.02%)p21.92(  0.37%)d99.99( 99.62%)
  81. (0.00001) RY ( 7) C  5            s(  0.75%)p 7.78(  5.85%)d99.99( 93.40%)
  82. (0.00001) RY ( 8) C  5            s(  0.33%)p 1.54(  0.52%)d99.99( 99.15%)
  83. (0.00000) RY ( 9) C  5            s(  0.27%)p99.99( 38.38%)d99.99( 61.36%)
  84. (0.00292) RY ( 1) O  6            s(  0.09%)p99.99( 96.78%)d35.70(  3.13%)
                                         0.0000  0.0000  0.0296 -0.0095 -0.8143
                                        -0.0014 -0.1461 -0.0061 -0.5323 -0.0436
                                        -0.0590 -0.0523  0.0938 -0.1200
  85. (0.00042) RY ( 2) O  6            s(  0.20%)p99.99( 95.65%)d21.27(  4.16%)
                                         0.0000 -0.0007  0.0442  0.0032 -0.0991
                                         0.0210 -0.8877 -0.0111  0.3975  0.1360
                                        -0.0790 -0.0737  0.0719  0.0789
  86. (0.00012) RY ( 3) O  6            s( 91.60%)p 0.09(  8.19%)d 0.00(  0.21%)
                                         0.0000 -0.0083  0.9571  0.0125 -0.1217
                                        -0.0099  0.1512 -0.0195  0.2088 -0.0120
                                         0.0184 -0.0108  0.0221 -0.0313
  87. (0.00008) RY ( 4) O  6            s(  5.67%)p12.61( 71.49%)d 4.03( 22.84%)
  88. (0.00001) RY ( 5) O  6            s(  2.18%)p 9.29( 20.24%)d35.59( 77.58%)
  89. (0.00001) RY ( 6) O  6            s(  0.01%)p99.99(  2.39%)d99.99( 97.60%)
  90. (0.00000) RY ( 7) O  6            s(  0.03%)p28.62(  0.97%)d99.99( 98.99%)
  91. (0.00001) RY ( 8) O  6            s(  0.21%)p 6.36(  1.33%)d99.99( 98.46%)
  92. (0.00000) RY ( 9) O  6            s(  0.00%)p 1.00(  3.43%)d28.11( 96.56%)
  93. (0.00165) RY ( 1) H  7            s( 97.42%)p 0.03(  2.58%)
                                         0.0060  0.9870 -0.1302  0.0926  0.0163
  94. (0.00017) RY ( 2) H  7            s(  0.06%)p99.99( 99.94%)
                                         0.0015  0.0241  0.1858  0.1741 -0.9667
  95. (0.00014) RY ( 3) H  7            s(  0.27%)p99.99( 99.73%)
                                         0.0079  0.0512  0.8026  0.5379  0.2524
  96. (0.00002) RY ( 4) H  7            s(  2.36%)p41.46( 97.64%)
  97. (0.00156) RY ( 1) H  8            s( 96.97%)p 0.03(  3.03%)
                                         0.0063  0.9847 -0.1483 -0.0374  0.0831
  98. (0.00018) RY ( 2) H  8            s(  0.08%)p99.99( 99.92%)
                                         0.0030  0.0279  0.1821 -0.8939 -0.4087
  99. (0.00015) RY ( 3) H  8            s(  0.16%)p99.99( 99.84%)
                                         0.0070  0.0394  0.6960 -0.1749  0.6953
 100. (0.00002) RY ( 4) H  8            s(  2.88%)p33.68( 97.12%)
 101. (0.00173) RY ( 1) H  9            s( 98.07%)p 0.02(  1.93%)
                                         0.0060  0.9903 -0.0859 -0.0355 -0.1033
 102. (0.00013) RY ( 2) H  9            s(  0.00%)p 1.00(100.00%)
                                        -0.0013  0.0018  0.0232  0.9451 -0.3260
 103. (0.00012) RY ( 3) H  9            s(  0.01%)p99.99( 99.99%)
                                         0.0073  0.0096  0.8267 -0.2015 -0.5252
 104. (0.00002) RY ( 4) H  9            s(  2.01%)p48.71( 97.99%)
 105. (0.00255) RY ( 1) H 10            s( 99.07%)p 0.01(  0.93%)
                                         0.0072  0.9953  0.0474  0.0200  0.0815
 106. (0.00018) RY ( 2) H 10            s(  0.01%)p 1.00( 99.99%)
                                         0.0001  0.0084  0.1258  0.9082 -0.3990
 107. (0.00008) RY ( 3) H 10            s(  0.16%)p99.99( 99.84%)
 108. (0.00006) RY ( 4) H 10            s(  0.87%)p99.99( 99.13%)
 109. (0.00405) RY ( 1) H 11            s( 99.05%)p 0.01(  0.95%)
                                         0.0081  0.9952 -0.0057 -0.0314 -0.0920
 110. (0.00016) RY ( 2) H 11            s(  0.00%)p 1.00(100.00%)
                                         0.0006  0.0065 -0.1314 -0.9116  0.3895
 111. (0.00008) RY ( 3) H 11            s(  0.39%)p99.99( 99.61%)
 112. (0.00006) RY ( 4) H 11            s(  0.66%)p99.99( 99.34%)
 113. (0.00162) RY ( 1) H 12            s( 96.91%)p 0.03(  3.09%)
                                         0.0051  0.9844 -0.0590  0.0448  0.1594
 114. (0.00018) RY ( 2) H 12            s(  1.07%)p92.45( 98.93%)
                                         0.0045  0.1033  0.3382 -0.8983 -0.2608
 115. (0.00015) RY ( 3) H 12            s(  0.00%)p 1.00(100.00%)
                                         0.0046 -0.0009 -0.9260 -0.2731 -0.2604
 116. (0.00003) RY ( 4) H 12            s(  2.11%)p46.32( 97.89%)
 117. (0.00162) RY ( 1) H 13            s( 97.14%)p 0.03(  2.86%)
                                         0.0049  0.9856 -0.0549  0.0864  0.1346
 118. (0.00017) RY ( 2) H 13            s(  1.18%)p83.67( 98.82%)
                                         0.0046  0.1086  0.3774  0.3353 -0.8563
 119. (0.00015) RY ( 3) H 13            s(  0.02%)p99.99( 99.98%)
                                        -0.0042  0.0120  0.9243 -0.1160  0.3634
 120. (0.00003) RY ( 4) H 13            s(  1.77%)p55.61( 98.23%)
 121. (0.00347) RY ( 1) H 14            s( 99.28%)p 0.01(  0.72%)
                                         0.0043  0.9964  0.0815 -0.0170 -0.0152
 122. (0.00014) RY ( 2) H 14            s(  0.07%)p99.99( 99.93%)
                                        -0.0070  0.0262 -0.0648  0.4111  0.9089
 123. (0.00011) RY ( 3) H 14            s(  0.00%)p 1.00(100.00%)
                                         0.0001  0.0017  0.0936  0.9096 -0.4048
 124. (0.00003) RY ( 4) H 14            s(  0.74%)p99.99( 99.26%)


 NHO DIRECTIONALITY AND BOND BENDING (deviation from line of nuclear centers at
                                      the position of maximum hybrid amplitude)

         [Thresholds for printing:  angular deviation  >  1.0 degree]
                                    p- or d-character  > 25.0%
                                    orbital occupancy  >  0.10e

                        Line of Centers        Hybrid 1             Hybrid 2
                        ---------------  -------------------  ------------------
           NBO            Theta   Phi    Theta   Phi    Dev   Theta   Phi    Dev
 ===============================================================================
   7. LP ( 1) O  6          --     --    137.5  325.8   --      --     --    --
   8. LP ( 2) O  6          --     --    121.7  189.4   --      --     --    --
  14. BD ( 2) C  2- C  3  134.1  329.1    67.2  264.5  89.1    65.8  263.4  89.1
  16. BD ( 1) C  3- C  4   84.9  356.1    83.8  356.6   1.3    96.9  176.9   2.0
  18. BD ( 1) C  4- C  5   32.9   35.8    34.6   32.6   2.5     --     --    --
  20. BD ( 2) C  4- O  6  138.6  324.5   115.0   82.8  88.1   112.7   84.5  89.1
  23. BD ( 1) C  5- H 14   94.7  351.9    93.7  352.3   1.1     --     --    --


 SECOND ORDER PERTURBATION THEORY ANALYSIS OF FOCK MATRIX IN NBO BASIS

     Threshold for printing:   0.50 kcal/mol
                                                          E(2) E(NL)-E(L) F(L,NL)
      Donor (L) NBO              Acceptor (NL) NBO      kcal/mol   a.u.    a.u.
 ===============================================================================

 within unit  1
[...]
  1 C                -0.0       0.0     -20.9      -4.1     -90.5     -10.8
  2 C                 0.1      -0.4       2.5      -0.1      -5.5       0.8
  3 C                -0.6      -0.4      -0.1      -0.0       0.1      -0.0
  4 C                44.1      43.7      -0.1      -0.0      -0.8      -0.1
  5 O                -0.1       0.0      -0.0      -0.0      -0.1      -0.0
  6 H                 0.0      -0.0      -3.6      -9.0      -1.5     -11.6
  7 H                -0.0      -0.0      -3.0      -7.7      -2.5     -11.4
  8 H                 0.0      -0.0     -18.8      -1.4      -0.1     -20.6
  9 H                 0.1       0.1       0.0      -0.1      -1.2      -0.0
 10 H                 0.0       0.0      -0.1      -0.0      -1.1      -0.0
 12 H                56.5      -0.0      -0.0      -0.0      -0.0       0.0
 13 H                -0.1      57.0      -0.0      -0.0      -0.0      -0.0

                     42        43        44        45        46        47   
                   0.00000   0.00000   0.00000   0.00000   0.00000   0.00000
                   0.00004   0.00000   0.00000   0.00000   0.00000   0.00415
                  --------  --------  --------  --------  --------  --------
  0 C               127.9     118.0     116.2     115.9     112.8     -13.3
  1 C                -8.2      -3.9      -3.7      -2.0       0.1     182.7
  2 C                 0.1       0.3       0.1      -0.0      -0.0     -39.8
  3 C                 0.0      -0.0      -0.0      -0.0      -0.0       4.3
  4 C                -0.1      -0.0      -0.0      -0.0      -0.0      -5.2
  5 O                -0.0       0.0      -0.0      -0.0       0.0      -0.1
  6 H                -7.3      -3.8      -4.9      -6.2      -5.6       0.0
  7 H                -8.0      -5.9      -7.6      -2.1      -5.1       0.0
  8 H                -4.2      -4.7       0.0      -5.3      -2.3       0.1
  9 H                -0.2       0.1      -0.1      -0.1      -0.0     -28.8
 10 H                 0.0      -0.1      -0.0      -0.0      -0.0      -0.3
 11 H                -0.0       0.0      -0.0      -0.0       0.0       0.2
 12 H                -0.0      -0.0      -0.0      -0.0       0.0       0.2

                     48        49        50        51        52        53   
                   0.00000   0.00000   0.00000   0.00000   0.00000   0.00000
                   0.00199   0.00172   0.00025   0.00022   0.00013   0.00012
                  --------  --------  --------  --------  --------  --------
  0 C               -29.5      -4.8     -69.0     -15.8      -4.6      -2.9
  1 C               223.8     120.3     271.0     131.6     107.4     121.8
  2 C               -83.1     -13.2     -97.8      -9.6      -2.9      -8.0
  3 C                 4.4       0.5      -1.8      -0.8      -0.0       1.0
  4 C                -6.0      -0.6      -0.7       0.4       0.0       0.1
  5 O                 0.1       0.0       0.0      -0.1      -0.0       0.0
  6 H                 0.6      -0.2      -0.9      -0.1       0.3      -0.0
  7 H                 0.8      -0.3      -0.9      -0.2       0.2      -0.0
  8 H                -0.6      -0.1       2.6       0.2      -0.1       0.0
  9 H                -8.6      -1.1      -2.7      -5.6      -0.0     -12.1
 10 H                -1.7      -0.2       0.2      -0.0      -0.0       0.0
 11 H                -0.1      -0.2      -0.0       0.0      -0.1      -0.0
 12 H                -0.2      -0.1      -0.0       0.0      -0.1      -0.0

                     54        55        56        57        58        59   
                   0.00000   0.00000   0.00000   0.00000   0.00000   0.00000
                   0.00001   0.00000   0.00590   0.00480   0.00274   0.00087
                  --------  --------  --------  --------  --------  --------
  0 C                -4.4      -0.2      -2.8       0.9      -0.9       0.1
  1 C               111.6     104.2     -75.0    -126.5     -34.6      -6.8
  2 C                -5.5      -0.9     239.3     255.3     275.8     112.0
  3 C                 0.0      -0.0     -41.1      -9.3    -127.6      -4.9
  4 C                -0.1      -0.0       6.0      -5.2      -2.2      -0.0
  5 O                -0.0      -0.0      -1.5       0.7      -0.5      -0.0
  6 H                -0.1      -0.0       0.1       0.3      -0.1      -0.0
  7 H                -0.1      -0.0       0.1       0.3      -0.1      -0.0
  8 H                 0.1      -0.1       0.1      -2.7      -0.1      -0.0
  9 H                -1.5      -2.9       1.4      -3.4       0.0      -0.1
 10 H                -0.1      -0.0     -26.2     -10.3      -9.6      -0.1
 11 H                -0.0      -0.0      -0.1       0.0      -0.1      -0.0
 12 H                -0.0      -0.0      -0.1       0.0      -0.1      -0.0
 13 H                 0.0      -0.0      -0.1       0.0      -0.1       0.0

                     60        61        62        63        64        65   
                   0.00000   0.00000   0.00000   0.00000   0.00000   0.00000
                   0.00018   0.00017   0.00005   0.00001   0.00001   0.01757
                  --------  --------  --------  --------  --------  --------
  0 C                -0.0       0.2       1.2      -0.0      -0.0      -0.1
  1 C                -2.6      -3.8      -8.9      -0.8      -0.7       1.1
  2 C               106.4     110.6     122.7     103.3     104.2     -23.3
  3 C                -3.3      -4.5      -2.9      -0.8      -0.2     164.5
  4 C                -0.1      -0.2       0.3      -0.0      -0.0      -6.2
  5 O                -0.1       0.1      -0.3      -0.1      -0.0     -36.5
  8 H                 0.0       0.1      -0.2      -0.0      -0.0       0.0
  9 H                -0.0      -0.1      -0.0      -0.0      -0.0       0.3
 10 H                -0.2      -2.3     -11.8      -1.4      -3.1       0.3
 13 H                -0.0       0.0      -0.0      -0.0      -0.0      -0.2

                     66        67        68        69        70        71   
                   0.00000   0.00000   0.00000   0.00000   0.00000   0.00000
                   0.00667   0.00290   0.00229   0.00101   0.00066   0.00055
                  --------  --------  --------  --------  --------  --------
  0 C                -0.1      -0.0      -0.1      -0.1       0.0       0.3
  1 C                -5.2       0.0      -0.9       3.8       0.2       6.8
  2 C               -19.8      -2.6     -12.0     -76.6      -4.0     -53.6
  3 C               176.0     111.0     191.5     188.9     104.6     159.2
  4 C               -41.0      -2.3     -74.0     -13.7       0.0      -8.6
  5 O               -12.9      -5.9      -5.8       0.4      -0.3      -2.4
  9 H                -0.0      -0.0       0.0      -0.1      -0.0      -0.2
 10 H                 1.9      -0.0       0.5      -1.2      -0.1      -1.6
 11 H                -0.1      -0.1       0.0      -0.1      -0.2      -0.1
 12 H                -0.1      -0.1       0.1      -0.2      -0.3      -0.0
 13 H                 1.4      -0.0       0.5      -0.9       0.0       0.2

                     72        73        74        75        76        77   
                   0.00000   0.00000   0.00000   0.00000   0.00000   0.00000
                   0.00001   0.00000   0.00231   0.00166   0.00051   0.00011
                  --------  --------  --------  --------  --------  --------
  0 C                -0.0      -0.0      -1.0      -0.0       0.0      -0.0
  1 C                 0.7       0.0     -11.5      -0.9      -0.0       0.1
  2 C                -6.5      -2.9       5.3      -4.0      -0.0      -1.1
  3 C               108.8     110.0     -55.1     -68.5      -4.1      -1.2
  4 C                -2.3      -7.0     182.9     191.4     122.5     137.4
  5 O                -0.4      -0.7      -3.0      -0.5      -0.1       0.1
  9 H                -0.0       0.0      -2.9      -0.3      -0.0       0.0
 10 H                -0.1       0.0       0.1       0.2      -0.0      -0.0
 11 H                -0.0       0.4      -5.7      -1.1      -8.8     -12.3
 12 H                -0.0       0.4      -6.3      -1.1      -8.0     -11.9
 13 H                -0.1      -0.2      -2.9     -15.2      -1.5     -11.1

                     78        79        80        81        82        83   
                   0.00000   0.00000   0.00000   0.00000   0.00000   0.00000
                   0.00006   0.00002   0.00001   0.00001   0.00000   0.00292
                  --------  --------  --------  --------  --------  --------
  1 C                -0.0       0.0       0.2       0.0      -0.0      -0.0
  2 C                -1.1      -0.0      -0.3      -0.1      -0.1       1.0
  3 C               -11.2       0.0      -4.1      -0.2      -4.8     -18.9
  4 C               142.9     111.1     111.5     111.7     121.4       0.0
  5 O                -0.5      -0.0      -0.0      -0.0      -0.2     118.6
  9 H                -0.0      -0.0       0.1       0.1      -0.0      -0.0
 10 H                 0.0      -0.0      -0.0      -0.0      -0.0      -0.3
 11 H                -7.4      -4.4      -1.1      -3.8      -7.4      -0.0
 12 H                -7.0      -4.4      -0.9      -3.3      -9.4      -0.0
 13 H               -15.6      -2.3      -5.3      -4.4       0.5      -0.4

                     84        85        86        87        88        89   
                   0.00000   0.00000   0.00000   0.00000   0.00000   0.00000
                   0.00042   0.00012   0.00008   0.00001   0.00001   0.00000
                  --------  --------  --------  --------  --------  --------
  0 C                -0.0      -0.2       0.0       0.0      -0.0      -0.0
  1 C                -0.0       0.0      -0.1       0.0      -0.0      -0.0
  2 C                -0.1      -1.4      -0.8      -0.2       0.0      -0.0
  3 C                -4.5     -25.7      -2.0      -3.7      -2.4      -0.3
  4 C                -0.2      -3.1       0.2      -0.0      -0.5      -0.0
  5 O               104.9     131.2     102.8     104.0     102.9     100.3
 10 H                -0.0      -0.2      -0.0      -0.0      -0.0      -0.0
 11 H                -0.0      -0.2      -0.0      -0.0      -0.0      -0.0
 12 H                -0.0      -0.2      -0.0      -0.0       0.0      -0.0
 13 H                -0.0      -0.2      -0.0      -0.0      -0.0      -0.0

                     90        91        92        93        94        95   
                   0.00000   0.00000   0.00000   0.00000   0.00000   0.00000
                   0.00001   0.00000   0.00165   0.00017   0.00014   0.00002
                  --------  --------  --------  --------  --------  --------
  0 C                -0.0      -0.0     -33.7      -2.8      -3.7      -7.9
  1 C                -0.0      -0.0      -0.8      -0.3       0.2      -0.1
  2 C                -0.1      -0.0       0.4      -0.1      -0.0      -0.0
  3 C                -1.2      -2.9      -0.0      -0.0      -0.0      -0.0
  4 C                -0.2      -0.0       0.0       0.0      -0.0      -0.0
  5 O               101.5     103.0      -0.0      -0.0      -0.0      -0.0
  6 H                -0.0      -0.0     135.1     104.0     104.4     108.3
  7 H                -0.0      -0.0      -0.1      -0.5      -0.4      -0.1
  8 H                -0.0      -0.0      -0.5      -0.2      -0.4      -0.1
  9 H                -0.0      -0.0      -0.4      -0.0      -0.0      -0.0

                     96        97        98        99       100       101   
                   0.00000   0.00000   0.00000   0.00000   0.00000   0.00000
                   0.00156   0.00018   0.00015   0.00002   0.00173   0.00013
                  --------  --------  --------  --------  --------  --------
  0 C               -33.7      -2.8      -3.6      -7.9     -38.7      -3.0
  1 C                -0.8      -0.3       0.1      -0.1       2.4      -0.2
  2 C                 0.4      -0.1      -0.0      -0.0      -2.9      -0.0
  6 H                -0.1      -0.5      -0.4      -0.1      -0.5      -0.3
  7 H               135.1     103.9     104.3     108.2      -0.5      -0.3
  8 H                -0.5      -0.2      -0.5      -0.1     142.3     103.7
  9 H                -0.4      -0.0      -0.0      -0.0       0.1      -0.0
 10 H                 0.0      -0.0      -0.0      -0.0      -2.2      -0.0

                    102       103       104       105       106       107   
                   0.00000   0.00000   0.00000   0.00000   0.00000   0.00000
                   0.00012   0.00002   0.00255   0.00018   0.00008   0.00006
                  --------  --------  --------  --------  --------  --------
  0 C                -3.3      -7.9      -0.7      -0.1      -0.3      -0.4
  1 C                -0.0      -0.2     -40.8      -3.0      -4.5      -7.8
  2 C                -0.0      -0.1      -1.7      -0.1      -1.0       0.2
  4 C                -0.0      -0.0      -3.0      -0.0      -0.0      -0.0
  6 H                -0.4      -0.1      -0.4      -0.0      -0.0      -0.0
  7 H                -0.4      -0.1      -0.4      -0.0      -0.0      -0.0
  8 H               104.2     108.6       0.0      -0.0      -0.0      -0.0
  9 H                -0.0      -0.0     150.5     103.4     105.9     108.2
 10 H                -0.0      -0.1       0.1      -0.0      -0.0      -0.0
 11 H                -0.0      -0.0      -1.9      -0.0      -0.0      -0.0
 12 H                -0.0      -0.0      -1.9      -0.0      -0.0      -0.1

                    108       109       110       111       112       113   
                   0.00000   0.00000   0.00000   0.00000   0.00000   0.00000
                   0.00405   0.00016   0.00008   0.00006   0.00162   0.00018
                  --------  --------  --------  --------  --------  --------
  0 C                -1.1      -0.0      -0.0      -0.0      -0.0      -0.0
  1 C                -1.7      -0.1      -0.8       0.3      -0.1      -0.1
  2 C               -41.9      -3.1      -4.7      -8.1      -0.3       0.1
  3 C                -0.3      -0.1      -0.4      -0.4      -0.3      -0.3
  4 C                 0.3      -0.0      -0.1      -0.0     -32.4      -3.3
  5 O                -0.4      -0.0      -0.0      -0.0      -0.0      -0.2
  8 H                -2.2      -0.0       0.0      -0.1      -0.0      -0.0
  9 H                 0.1      -0.0      -0.0       0.0      -1.9      -0.0
 10 H               147.2     103.4     106.0     108.3      -0.0      -0.0
 11 H                -0.0      -0.0      -0.0      -0.0     135.4     104.4
 12 H                -0.0      -0.0      -0.0      -0.0       0.1      -0.7
 13 H                -0.0      -0.0      -0.0      -0.0      -0.3      -0.0

                    114       115       116       117       118       119   
                   0.00000   0.00000   0.00000   0.00000   0.00000   0.00000
                   0.00015   0.00003   0.00162   0.00017   0.00015   0.00003
                  --------  --------  --------  --------  --------  --------
  1 C                -0.0      -0.0      -0.1      -0.1      -0.0      -0.0
  2 C                -0.0      -0.0      -0.3       0.1      -0.0      -0.0
  3 C                -0.0      -0.1      -0.3      -0.2      -0.1      -0.1
  4 C                -3.3      -7.8     -32.5      -3.4      -3.3      -8.0
  5 O                -0.0      -0.0      -0.0      -0.2      -0.0      -0.0
  9 H                -0.0      -0.1      -2.0      -0.0      -0.0      -0.1
 11 H               104.2     108.2       0.1      -0.7      -0.4      -0.1
 12 H                -0.4      -0.1     135.5     104.5     104.3     108.4
 13 H                -0.4      -0.1      -0.3      -0.0      -0.4      -0.1

                    120       121       122       123   
                   0.00000   0.00000   0.00000   0.00000
                   0.00347   0.00014   0.00011   0.00003
                  --------  --------  --------  --------
  1 C                -0.1      -0.0      -0.0      -0.0
  2 C                 0.0      -0.2      -0.0      -0.0
  3 C                 1.2      -0.6      -0.2      -0.2
  4 C               -39.3      -2.7      -3.0      -8.4
  5 O                -0.3      -0.3      -0.0      -0.0
 11 H                -0.3      -0.3      -0.3      -0.1
 12 H                -0.3      -0.3      -0.3      -0.1
 13 H               139.1     104.4     103.8     108.9

Storing NBOs: 0741.nbo
                                    *** NBOs were stored ***

                                *** returned from GENNBO program ***

-------
TIMINGS
-------

Total SCF time: 0 days 0 hours 0 min 4 sec 

Total time                  ....       4.473 sec
Sum of individual times     ....       4.889 sec  (109.3%)

Fock matrix formation       ....       2.915 sec  ( 65.2%)
  Coulomb formation         ....       1.614 sec  ( 55.4% of F)
  Split-RI-J                ....       1.607 sec  ( 55.1% of F)
  XC integration            ....       1.297 sec  ( 44.5% of F)
    Basis function eval.    ....       0.451 sec  ( 34.8% of XC)
    Density eval.           ....       0.233 sec  ( 18.0% of XC)
    XC-Functional eval.     ....       0.092 sec  (  7.1% of XC)
    XC-Potential eval.      ....       0.491 sec  ( 37.8% of XC)
Diagonalization             ....       0.017 sec  (  0.4%)
Density matrix formation    ....       0.002 sec  (  0.0%)
Population analysis         ....       1.054 sec  ( 23.6%)
Initial guess               ....       0.312 sec  (  7.0%)
Orbital Transformation      ....       0.000 sec  (  0.0%)
Orbital Orthonormalization  ....       0.000 sec  (  0.0%)
DIIS solution               ....       0.004 sec  (  0.1%)
SOSCF solution              ....       0.010 sec  (  0.2%)
Grid generation             ....       0.576 sec  ( 12.9%)
           ************************************************************
           *              Shut down parallel processing               *
           ************************************************************

-------------------------   --------------------
FINAL SINGLE POINT ENERGY      -270.008480511945
-------------------------   --------------------


                            ***************************************
                            *     ORCA property calculations      *
                            ***************************************

                                    ---------------------
                                    Active property flags
                                    ---------------------
   (+) Dipole Moment


------------------------------------------------------------------------------
                       ORCA ELECTRIC PROPERTIES CALCULATION
------------------------------------------------------------------------------

Dipole Moment Calculation                       ... on
Quadrupole Moment Calculation                   ... off
Polarizability Calculation                      ... off
GBWName                                         ... 0741.gbw
Electron density file                           ... 0741.scfp.tmp

-------------
DIPOLE MOMENT
-------------
                                X             Y             Z
Electronic contribution:      4.22915      -2.10959      -3.79896
Nuclear contribution   :     -5.18047       2.60626       4.70935
                        -----------------------------------------
Total Dipole Moment    :     -0.95132       0.49667       0.91039
                        -----------------------------------------
Magnitude (a.u.)       :      1.40730
Magnitude (Debye)      :      3.57708


Timings for individual modules:

Sum of individual times         ...        5.459 sec (=   0.091 min)
GTO integral calculation        ...        0.349 sec (=   0.006 min)   6.4 %
SCF iterations                  ...        5.110 sec (=   0.085 min)  93.6 %
                             ****ORCA TERMINATED NORMALLY****
TOTAL RUN TIME: 0 days 0 hours 0 minutes 5 seconds 858 msec
