
                                 *****************
                                 * O   R   C   A *
                                 *****************

           --- An Ab Initio, DFT and Semiempirical electronic structure package ---

                  #######################################################
                  #                        -***-                        #
                  #  Department of molecular theory and spectroscopy    #
                  #              Directorship: Frank Neese              #
                  # Max Planck Institute for Chemical Energy Conversion #
                  #                  D-45470 Muelheim/Ruhr              #
                  #                       Germany                       #
                  #                                                     #
                  #                  All rights reserved                #
                  #                        -***-                        #
                  #######################################################


                         Program Version 3.0.3 - RELEASE   -


 With contributions from (in alphabetic order):
   Ute Becker             : Parallelization
   Dmytro Bykov           : SCF Hessian
   Dmitry Ganyushin       : Spin-Orbit,Spin-Spin,Magnetic field MRCI
   Andreas Hansen         : Spin unrestricted coupled pair/coupled cluster methods
   Dimitrios Liakos       : Extrapolation schemes; parallel MDCI
   Robert Izsak           : Overlap fitted RIJCOSX, COSX-SCS-MP3
   Christian Kollmar      : KDIIS, OOCD, Brueckner-CCSD(T), CCSD density
   Simone Kossmann        : Meta GGA functionals, TD-DFT gradient, OOMP2, MP2 Hessian
   Taras Petrenko         : DFT Hessian,TD-DFT gradient, ASA and ECA modules, normal mode analysis, Resonance Raman, ABS, FL, XAS/XES, NRVS
   Christoph Reimann      : Effective Core Potentials
   Michael Roemelt        : Restricted open shell CIS
   Christoph Riplinger    : Improved optimizer, TS searches, QM/MM, DLPNO-CCSD
   Barbara Sandhoefer     : DKH picture change effects
   Igor Schapiro          : Molecular dynamics
   Kantharuban Sivalingam : CASSCF convergence, NEVPT2
   Boris Wezisla          : Elementary symmetry handling
   Frank Wennmohs         : Technical directorship


 We gratefully acknowledge several colleagues who have allowed us to
 interface, adapt or use parts of their codes:
   Stefan Grimme, W. Hujo, H. Kruse, T. Risthaus : VdW corrections, initial TS optimization,
                                                   DFT functionals, gCP
   Ed Valeev                                     : LibInt (2-el integral package), F12 methods
   Garnet Chan, S. Sharma, R. Olivares           : DMRG
   Ulf Ekstrom                                   : XCFun DFT Library
   Mihaly Kallay                                 : mrcc  (arbitrary order and MRCC methods)
   Andreas Klamt, Michael Diedenhofen            : otool_cosmo (COSMO solvation model)
   Frank Weinhold                                : gennbo (NPA and NBO analysis)
   Christopher J. Cramer and Donald G. Truhlar   : smd solvation model


 Your calculation uses the libint2 library for the computation of 2-el integrals
 For citations please refer to: http://libint.valeyev.net

 This ORCA versions uses:
   CBLAS   interface :  Fast vector & matrix operations
   LAPACKE interface :  Fast linear algebra routines
   SCALAPACK package :  Parallel linear algebra routines


Your calculation utilizes the basis: Ahlrichs-VDZ
Cite in your paper:
H - Kr: A. Schaefer, H. Horn and R. Ahlrichs, J. Chem. Phys. 97, 2571 (1992).

Your calculation utilizes the basis: Ahlrichs SVPalls1+f
Cite in your paper:
Rb - Xe: A. Schaefer, C. Huber and R. Ahlrichs, J. Chem. Phys. 100, 5829 (1994).

================================================================================
                                        WARNINGS
                       Please study these warnings very carefully!
================================================================================
Now building the actual basis set


INFO   : the flag for use of LIBINT has been found!

================================================================================
                                       INPUT FILE
================================================================================
NAME = 0929.inp
|  1> ! RI PBE def2-SVP def2-SVP/J NBO PAL2
|  2> % maxcore 2000
|  3> % output
|  4>     # printlevel mini
|  5>     print[ P_Basis ] 0
|  6>     print[ P_SCFInfo ] 1
|  7>     print[ P_SCFIterInfo ] 1
|  8>     print[ P_OrbEn ] 0
|  9>     print[ P_Cartesian ] 0
| 10> end
| 11> *xyz 0 1
| 12>  O        1.7163530000    -1.5341350000     0.0543230000 
| 13>  C        2.4221300000    -0.3121600000    -0.0447210000 
| 14>  C        2.9342780000     0.0511410000     1.3020920000 
| 15>  C        4.2042380000     0.3790020000     1.5446390000 
| 16>  C        4.6987270000     0.7754730000     2.8116270000 
| 17>  C        5.1520280000     1.1153270000     3.8732730000 
| 18>  H        1.2276250000    -1.6704220000    -0.7605320000 
| 19>  H        1.7540060000     0.4894540000    -0.3957530000 
| 20>  H        3.2562640000    -0.3834680000    -0.7559550000 
| 21>  H        2.2067890000     0.0552900000     2.1086110000 
| 22>  H        4.9282880000     0.3520960000     0.7327250000 
| 23>  H        5.5435630000     1.4129030000     4.8169710000 
| 24> *
| 25> 
| 26>                          ****END OF INPUT****
================================================================================

                       ****************************
                       * Single Point Calculation *
                       ****************************

--------------------------------
INTERNAL COORDINATES (ANGSTROEM)
--------------------------------
 O      0   0   0   0.000000     0.000     0.000
 C      1   0   0   1.414621     0.000     0.000
 C      2   1   0   1.485997   108.644     0.000
 C      3   2   1   1.333837   123.576   129.095
 C      4   3   2   1.416675   124.316   177.559
 C      5   4   3   1.203360   178.264   178.932
 H      1   2   3   0.959905   108.495   167.759
 H      2   1   3   1.100999   110.395   240.930
 H      2   1   3   1.098507   111.599   121.373
 H      3   2   1   1.086154   116.301   308.132
 H      4   3   2   1.088199   119.456   357.791
 H      6   5   4   1.064151   179.412   191.523

---------------------------
INTERNAL COORDINATES (A.U.)
---------------------------
 O      0   0   0   0.000000     0.000     0.000
 C      1   0   0   2.673247     0.000     0.000
 C      2   1   0   2.808128   108.644     0.000
 C      3   2   1   2.520586   123.576   129.095
 C      4   3   2   2.677127   124.316   177.559
 C      5   4   3   2.274020   178.264   178.932
 H      1   2   3   1.813958   108.495   167.759
 H      2   1   3   2.080586   110.395   240.930
 H      2   1   3   2.075878   111.599   121.373
 H      3   2   1   2.052533   116.301   308.132
 H      4   3   2   2.056398   119.456   357.791
 H      6   5   4   2.010954   179.412   191.523



           ************************************************************
           *        Program running with 2 parallel MPI-processes     *
           *              working on a common directory               *
           ************************************************************
------------------------------------------------------------------------------
                           ORCA GTO INTEGRAL CALCULATION
                           -- RI-GTO INTEGRALS CHOSEN --
------------------------------------------------------------------------------

                         BASIS SET STATISTICS AND STARTUP INFO

Gaussian basis set:
 # of primitive gaussian shells          ...  102
 # of primitive gaussian functions       ...  186
 # of contracted shells                  ...   54
 # of contracted basis functions         ...  114
 Highest angular momentum                ...    2
 Maximum contraction depth               ...    5
Auxiliary gaussian basis set:
 # of primitive gaussian shells          ...  192
 # of primitive gaussian functions       ...  516
 # of contracted shells                  ...  120
 # of contracted aux-basis functions     ...  360
 Highest angular momentum                ...    4
 Maximum contraction depth               ...    7
Ratio of auxiliary to basis functions    ...  3.16
Integral package used                  ... LIBINT
 One Electron integrals                  ... done
 Ordering auxiliary basis shells         ... done
 Integral threshhold             Thresh  ...  1.000e-10
 Primitive cut-off               TCut    ...  1.000e-11
 Pre-screening matrix                    ... done
 Shell pair data                         ... 
 Ordering of the shell pairs             ... done (   0.000 sec) 1374 of 1485 pairs
 Determination of significant pairs      ... done (   0.000 sec)
 Creation of shell pair data             ... done (   0.000 sec)
 Storage of shell pair data              ... done (   0.000 sec)
 Shell pair data done in (   0.001 sec)
 Computing two index integrals           ... done
 Cholesky decomposition of the V-matrix  ... done


Timings:
 Total evaluation time                   ...   0.143 sec (  0.002 min)
 One electron matrix time                ...   0.010 sec (  0.000 min) =  7.2%
 Schwartz matrix evaluation time         ...   0.074 sec (  0.001 min) = 51.8%
 Two index repulsion integral time       ...   0.004 sec (  0.000 min) =  2.4%
 Cholesky decomposition of V             ...   0.002 sec (  0.000 min) =  1.2%
 Three index repulsion integral time     ...   0.000 sec (  0.000 min) =  0.0%

           ************************************************************
           *              Shut down parallel processing               *
           ************************************************************


           ************************************************************
           *        Program running with 2 parallel MPI-processes     *
           *              working on a common directory               *
           ************************************************************
-------------------------------------------------------------------------------
                                 ORCA SCF
-------------------------------------------------------------------------------

------------
SCF SETTINGS
------------
Hamiltonian:
 Density Functional     Method          .... DFT(GTOs)
 Exchange Functional    Exchange        .... PBE
   PBE kappa parameter  XKappa          ....  0.804000
 Correlation Functional Correlation     .... PBE
 LDA part of GGA corr.  LDAOpt          .... PW91-LDA
 Gradients option       PostSCFGGA      .... off
   NL short-range parameter             ....  6.400000
 RI-approximation to the Coulomb term is turned on
   Number of auxiliary basis functions  .... 360


General Settings:
 Integral files         IntName         .... 0929
 Hartree-Fock type      HFTyp           .... RHF
 Total Charge           Charge          ....    0
 Multiplicity           Mult            ....    1
 Number of Electrons    NEL             ....   44
 Basis Dimension        Dim             ....  114
 Nuclear Repulsion      ENuc            ....    194.0639371694 Eh

Convergence Acceleration:
 DIIS                   CNVDIIS         .... on
   Start iteration      DIISMaxIt       ....    12
   Startup error        DIISStart       ....  0.200000
   # of expansion vecs  DIISMaxEq       ....     5
   Bias factor          DIISBfac        ....   1.050
   Max. coefficient     DIISMaxC        ....  10.000
 Newton-Raphson         CNVNR           .... off
 SOSCF                  CNVSOSCF        .... on
   Start iteration      SOSCFMaxIt      ....   150
   Startup grad/error   SOSCFStart      ....  0.003300
 Level Shifting         CNVShift        .... on
   Level shift para.    LevelShift      ....    0.2500
   Turn off err/grad.   ShiftErr        ....    0.0010
 Zerner damping         CNVZerner       .... off
 Static damping         CNVDamp         .... on
   Fraction old density DampFac         ....    0.7000
   Max. Damping (<1)    DampMax         ....    0.9800
   Min. Damping (>=0)   DampMin         ....    0.0000
   Turn off err/grad.   DampErr         ....    0.1000
 Fernandez-Rico         CNVRico         .... off

SCF Procedure:
 Maximum # iterations   MaxIter         ....   125
 SCF integral mode      SCFMode         .... Direct
   Integral package                     .... LIBINT
 Reset frequeny         DirectResetFreq ....    20
 Integral Threshold     Thresh          ....  1.000e-10 Eh
 Primitive CutOff       TCut            ....  1.000e-11 Eh

Convergence Tolerance:
 Convergence Check Mode ConvCheckMode   .... Total+1el-Energy
 Energy Change          TolE            ....  1.000e-06 Eh
 1-El. energy change                    ....  1.000e-03 Eh
 Orbital Gradient       TolG            ....  5.000e-05
 Orbital Rotation angle TolX            ....  5.000e-05
 DIIS Error             TolErr          ....  1.000e-06


Diagonalization of the overlap matrix:
Smallest eigenvalue                        ... 8.259e-04
Time for diagonalization                   ...    0.009 sec
Threshold for overlap eigenvalues          ... 1.000e-08
Number of eigenvalues below threshold      ... 0
Time for construction of square roots      ...    0.003 sec
Total time needed                          ...    0.013 sec

-------------------
DFT GRID GENERATION
-------------------

General Integration Accuracy     IntAcc      ...  4.340
Radial Grid Type                 RadialGrid  ... Gauss-Chebyshev
Angular Grid (max. acc.)         AngularGrid ... Lebedev-110
Angular grid pruning method      GridPruning ... 3 (G Style)
Weight generation scheme         WeightScheme... Becke
Basis function cutoff            BFCut       ...    1.0000e-10
Integration weight cutoff        WCut        ...    1.0000e-14
Grids for H and He will be reduced by one unit

# of grid points (after initial pruning)     ...  14760 (   0.0 sec)
# of grid points (after weights+screening)   ...  14012 (   0.0 sec)
nearest neighbour list constructed           ...    0.0 sec
Grid point re-assignment to atoms done       ...    0.0 sec
Grid point division into batches done        ...    0.0 sec
Reduced shell lists constructed in    0.1 sec

Total number of grid points                  ...    14012
Total number of batches                      ...      226
Average number of points per batch           ...       62
Average number of grid points per atom       ...     1168
Average number of shells per batch           ...    40.50 (75.00%)
Average number of basis functions per batch  ...    84.27 (73.92%)
Average number of large shells per batch     ...    32.89 (81.22%)
Average number of large basis fcns per batch ...    68.42 (81.19%)
Maximum spatial batch extension              ...  19.46, 20.62, 15.91 au
Average spatial batch extension              ...   1.74,  1.84,  1.39 au

Time for grid setup =    0.103 sec

------------------------------
INITIAL GUESS: MODEL POTENTIAL
------------------------------
Loading Hartree-Fock densities                     ... done
Calculating cut-offs                               ... done
Setting up the integral package                    ... done
Initializing the effective Hamiltonian             ... done
Starting the Coulomb interaction                   ... done (   0.0 sec)
Reading the grid                                   ... done
Mapping shells                                     ... done
Starting the XC term evaluation                    ... done (   0.1 sec)
  promolecular density results
     # of electrons  =     44.001111349
     EX              =    -35.422205155
     EC              =     -1.420838555
     EX+EC           =    -36.843043711
Transforming the Hamiltonian                       ... done (   0.0 sec)
Diagonalizing the Hamiltonian                      ... done (   0.0 sec)
Back transforming the eigenvectors                 ... done (   0.0 sec)
Now organizing SCF variables                       ... done
                      ------------------
                      INITIAL GUESS DONE (   0.3 sec)
                      ------------------
--------------
SCF ITERATIONS
--------------
ITER       Energy         Delta-E        Max-DP      RMS-DP      [F,P]     Damp
               ***  Starting incremental Fock matrix formation  ***
  0   -268.5796675581   0.000000000000 0.07380051  0.00299124  0.2274058 0.7000
  1   -268.6476535666  -0.067986008502 0.04665518  0.00201924  0.0834279 0.7000
                               ***Turning on DIIS***
  2   -268.6734155166  -0.025761950012 0.05587566  0.00307759  0.0262045 0.0000
  3   -268.7124385329  -0.039023016276 0.03459278  0.00147588  0.0446617 0.0000
  4   -268.7223113524  -0.009872819564 0.01051563  0.00041793  0.0113274 0.0000
  5   -268.7229199030  -0.000608550549 0.00320722  0.00015203  0.0043744 0.0000
                      *** Initiating the SOSCF procedure ***
                           *** Shutting down DIIS ***
                      *** Re-Reading the Fockian *** 
                      *** Removing any level shift *** 
ITER      Energy       Delta-E        Grad      Rot      Max-DP    RMS-DP
  6   -268.72295943  -0.0000395305  0.000168  0.000168  0.001670  0.000076
               *** Restarting incremental Fock matrix formation ***
  7   -268.72296083  -0.0000013970  0.000243  0.001632  0.001842  0.000048
  8   -268.72295529   0.0000055406  0.000754  0.001398  0.001478  0.000035
  9   -268.72296184  -0.0000065462  0.000062  0.000253  0.000433  0.000013
 10   -268.72296155   0.0000002865  0.000170  0.000218  0.000236  0.000009
 11   -268.72296191  -0.0000003619  0.000067  0.000176  0.000228  0.000008
 12   -268.72296175   0.0000001624  0.000105  0.000120  0.000179  0.000006
                 **** Energy Check signals convergence ****
              ***Rediagonalizing the Fockian in SOSCF/NRSCF***

               *****************************************************
               *                     SUCCESS                       *
               *           SCF CONVERGED AFTER  13 CYCLES          *
               *****************************************************

Setting up the final grid:

General Integration Accuracy     IntAcc      ...  4.670
Radial Grid Type                 RadialGrid  ... Gauss-Chebyshev
Angular Grid (max. acc.)         AngularGrid ... Lebedev-302
Angular grid pruning method      GridPruning ... 3 (G Style)
Weight generation scheme         WeightScheme... Becke
Basis function cutoff            BFCut       ...    1.0000e-10
Integration weight cutoff        WCut        ...    1.0000e-14
Grids for H and He will be reduced by one unit

# of grid points (after initial pruning)     ...  57636 (   0.0 sec)
# of grid points (after weights+screening)   ...  54232 (   0.1 sec)
nearest neighbour list constructed           ...    0.0 sec
Grid point re-assignment to atoms done       ...    0.0 sec
Grid point division into batches done        ...    0.2 sec
Reduced shell lists constructed in    0.3 sec

Total number of grid points                  ...    54232
Total number of batches                      ...      852
Average number of points per batch           ...       63
Average number of grid points per atom       ...     4519
Average number of shells per batch           ...    37.53 (69.50%)
Average number of basis functions per batch  ...    77.58 (68.05%)
Average number of large shells per batch     ...    30.04 (80.04%)
Average number of large basis fcns per batch ...    61.99 (79.90%)
Maximum spatial batch extension              ...  15.43, 17.62, 15.07 au
Average spatial batch extension              ...   1.08,  1.13,  0.99 au

Final grid set up in    0.4 sec
Final integration                            ... done (   0.2 sec)
Change in XC energy                          ...     0.001156028
Integrated number of electrons               ...    44.000009497
Previous integrated no of electrons          ...    44.003760556

----------------
TOTAL SCF ENERGY
----------------

Total Energy       :         -268.72180592 Eh           -7312.29209 eV

Components:
Nuclear Repulsion  :          194.06393717 Eh            5280.74820 eV
Electronic Energy  :         -462.78574309 Eh          -12593.04029 eV

One Electron Energy:         -747.61393774 Eh          -20343.60950 eV
Two Electron Energy:          284.82819465 Eh            7750.56921 eV

Virial components:
Potential Energy   :         -535.07479127 Eh          -14560.12529 eV
Kinetic Energy     :          266.35298534 Eh            7247.83320 eV
Virial Ratio       :            2.00889354


DFT components:
N(Alpha)           :       22.000004748666 electrons
N(Beta)            :       22.000004748666 electrons
N(Total)           :       44.000009497331 electrons
E(X)               :      -36.079677977299 Eh       
E(C)               :       -1.443007274352 Eh       
E(XC)              :      -37.522685251651 Eh       

---------------
SCF CONVERGENCE
---------------

  Last Energy change         ...   -2.0234e-07  Tolerance :   1.0000e-06
  Last MAX-Density change    ...    9.7257e-06  Tolerance :   1.0000e-05
  Last RMS-Density change    ...    4.8798e-07  Tolerance :   1.0000e-06
  Last Orbital Gradient      ...    2.4355e-06  Tolerance :   5.0000e-05
  Last Orbital Rotation      ...    5.9945e-06  Tolerance :   5.0000e-05

             **** THE GBW FILE WAS UPDATED (0929.gbw) ****
             **** DENSITY FILE WAS UPDATED (0929.scfp.tmp) ****
             **** ENERGY FILE WAS UPDATED (0929.en.tmp) ****

                    ********************************
                    * MULLIKEN POPULATION ANALYSIS *
                    ********************************

-----------------------
MULLIKEN ATOMIC CHARGES
-----------------------
   0 O :   -0.279507
   1 C :    0.193433
   2 C :   -0.050288
   3 C :   -0.066710
   4 C :    0.380621
   5 C :   -0.404758
   6 H :    0.155893
   7 H :    0.018141
   8 H :    0.000715
   9 H :    0.019014
  10 H :    0.026874
  11 H :    0.006570
Sum of atomic charges:   -0.0000000

--------------------------------
MULLIKEN REDUCED ORBITAL CHARGES
--------------------------------
  0 O s       :     3.731025  s :     3.731025
      pz      :     1.458867  p :     4.535830
      px      :     1.608203
      py      :     1.468760
      dz2     :     0.003311  d :     0.012652
      dxz     :     0.002736
      dyz     :     0.001996
      dx2y2   :     0.002400
      dxy     :     0.002209
  1 C s       :     2.943171  s :     2.943171
      pz      :     1.030219  p :     2.801019
      px      :     0.957002
      py      :     0.813797
      dz2     :     0.009580  d :     0.062376
      dxz     :     0.011347
      dyz     :     0.010344
      dx2y2   :     0.014304
      dxy     :     0.016802
  2 C s       :     3.195158  s :     3.195158
      pz      :     0.945051  p :     2.823474
      px      :     0.933429
      py      :     0.944994
      dz2     :     0.006562  d :     0.031656
      dxz     :     0.012020
      dyz     :     0.002839
      dx2y2   :     0.004824
      dxy     :     0.005411
  3 C s       :     3.131396  s :     3.131396
      pz      :     0.933289  p :     2.900185
      px      :     0.942464
      py      :     1.024432
      dz2     :     0.007542  d :     0.035130
      dxz     :     0.013017
      dyz     :     0.004095
      dx2y2   :     0.005040
      dxy     :     0.005436
  4 C s       :     3.121870  s :     3.121870
      pz      :     0.597260  p :     2.466493
      px      :     0.925125
      py      :     0.944107
      dz2     :     0.009566  d :     0.031016
      dxz     :     0.008176
      dyz     :     0.008321
      dx2y2   :     0.002521
      dxy     :     0.002432
  5 C s       :     3.631030  s :     3.631030
      pz      :     0.786765  p :     2.754868
      px      :     0.988920
      py      :     0.979183
      dz2     :     0.006121  d :     0.018860
      dxz     :     0.005058
      dyz     :     0.004976
      dx2y2   :     0.001378
      dxy     :     0.001327
  6 H s       :     0.774093  s :     0.774093
      pz      :     0.029607  p :     0.070014
      px      :     0.023767
      py      :     0.016640
  7 H s       :     0.960015  s :     0.960015
      pz      :     0.005758  p :     0.021844
      px      :     0.007511
      py      :     0.008575
  8 H s       :     0.978018  s :     0.978018
      pz      :     0.008283  p :     0.021267
      px      :     0.009701
      py      :     0.003282
  9 H s       :     0.957774  s :     0.957774
      pz      :     0.009657  p :     0.023212
      px      :     0.008800
      py      :     0.004755
 10 H s       :     0.949663  s :     0.949663
      pz      :     0.009700  p :     0.023463
      px      :     0.008780
      py      :     0.004983
 11 H s       :     0.966125  s :     0.966125
      pz      :     0.013368  p :     0.027305
      px      :     0.007158
      py      :     0.006779


                     *******************************
                     * LOEWDIN POPULATION ANALYSIS *
                     *******************************

----------------------
LOEWDIN ATOMIC CHARGES
----------------------
   0 O :   -0.126543
   1 C :    0.054726
   2 C :   -0.005412
   3 C :   -0.052211
   4 C :   -0.018394
   5 C :   -0.064380
   6 H :    0.070968
   7 H :    0.018647
   8 H :    0.009349
   9 H :    0.035171
  10 H :    0.041802
  11 H :    0.036277

-------------------------------
LOEWDIN REDUCED ORBITAL CHARGES
-------------------------------
  0 O s       :     3.452118  s :     3.452118
      pz      :     1.529471  p :     4.650055
      px      :     1.618817
      py      :     1.501766
      dz2     :     0.006499  d :     0.024370
      dxz     :     0.006191
      dyz     :     0.002785
      dx2y2   :     0.004233
      dxy     :     0.004661
  1 C s       :     2.837690  s :     2.837690
      pz      :     1.061840  p :     2.961847
      px      :     1.007099
      py      :     0.892908
      dz2     :     0.024446  d :     0.145737
      dxz     :     0.030578
      dyz     :     0.021083
      dx2y2   :     0.031429
      dxy     :     0.038201
  2 C s       :     2.882666  s :     2.882666
      pz      :     1.029803  p :     3.037388
      px      :     1.068613
      py      :     0.938972
      dz2     :     0.019239  d :     0.085359
      dxz     :     0.034045
      dyz     :     0.006495
      dx2y2   :     0.013405
      dxy     :     0.012175
  3 C s       :     2.853602  s :     2.853602
      pz      :     1.028150  p :     3.102321
      px      :     1.072250
      py      :     1.001921
      dz2     :     0.022043  d :     0.096288
      dxz     :     0.037820
      dyz     :     0.009568
      dx2y2   :     0.014025
      dxy     :     0.012832
  4 C s       :     2.902355  s :     2.902355
      pz      :     1.081864  p :     3.038317
      px      :     0.974928
      py      :     0.981526
      dz2     :     0.024793  d :     0.077721
      dxz     :     0.020935
      dyz     :     0.020799
      dx2y2   :     0.005640
      dxy     :     0.005555
  5 C s       :     2.946019  s :     2.946019
      pz      :     1.065183  p :     3.069826
      px      :     1.013642
      py      :     0.991000
      dz2     :     0.016414  d :     0.048536
      dxz     :     0.013603
      dyz     :     0.012295
      dx2y2   :     0.003066
      dxy     :     0.003159
  6 H s       :     0.746264  s :     0.746264
      pz      :     0.083160  p :     0.182768
      px      :     0.059741
      py      :     0.039867
  7 H s       :     0.914820  s :     0.914820
      pz      :     0.015940  p :     0.066533
      px      :     0.021965
      py      :     0.028627
  8 H s       :     0.924560  s :     0.924560
      pz      :     0.025086  p :     0.066091
      px      :     0.030979
      py      :     0.010025
  9 H s       :     0.894472  s :     0.894472
      pz      :     0.030880  p :     0.070357
      px      :     0.025319
      py      :     0.014158
 10 H s       :     0.889224  s :     0.889224
      pz      :     0.029361  p :     0.068975
      px      :     0.025106
      py      :     0.014508
 11 H s       :     0.884102  s :     0.884102
      pz      :     0.040615  p :     0.079621
      px      :     0.020317
      py      :     0.018689


                      *****************************
                      * MAYER POPULATION ANALYSIS *
                      *****************************

  NA   - Mulliken gross atomic population
  ZA   - Total nuclear charge
  QA   - Mulliken gross atomic charge
  VA   - Mayer's total valence
  BVA  - Mayer's bonded valence
  FA   - Mayer's free valence

  ATOM       NA         ZA         QA         VA         BVA        FA
  0 O      8.2795     8.0000    -0.2795     2.1072     2.1072     0.0000
  1 C      5.8066     6.0000     0.1934     4.0030     4.0030     0.0000
  2 C      6.0503     6.0000    -0.0503     3.9938     3.9938    -0.0000
  3 C      6.0667     6.0000    -0.0667     3.8184     3.8184    -0.0000
  4 C      5.6194     6.0000     0.3806     3.2491     3.2491    -0.0000
  5 C      6.4048     6.0000    -0.4048     3.5029     3.5029     0.0000
  6 H      0.8441     1.0000     0.1559     1.0201     1.0201     0.0000
  7 H      0.9819     1.0000     0.0181     0.9684     0.9684    -0.0000
  8 H      0.9993     1.0000     0.0007     0.9874     0.9874     0.0000
  9 H      0.9810     1.0000     0.0190     1.0009     1.0009     0.0000
 10 H      0.9731     1.0000     0.0269     0.9931     0.9931    -0.0000
 11 H      0.9934     1.0000     0.0066     0.9951     0.9951     0.0000

  Mayer bond orders larger than 0.1
B(  0-O ,  1-C ) :   1.0754 B(  0-O ,  6-H ) :   0.9781 B(  1-C ,  2-C ) :   1.0518 
B(  1-C ,  7-H ) :   0.9114 B(  1-C ,  8-H ) :   0.9274 B(  2-C ,  3-C ) :   1.8155 
B(  2-C ,  5-C ) :   0.1309 B(  2-C ,  9-H ) :   0.9616 B(  3-C ,  4-C ) :   1.0527 
B(  3-C , 10-H ) :   0.9358 B(  4-C ,  5-C ) :   2.2845 B(  5-C , 11-H ) :   1.0841 



 *********************************** NBO 6.0 ***********************************
             N A T U R A L   A T O M I C   O R B I T A L   A N D
          N A T U R A L   B O N D   O R B I T A L   A N A L Y S I S
 ***************************** Kiya KiyaLu (100703) ****************************
  (c) Copyright 1996-2015 Board of Regents of the University of Wisconsin System
      on behalf of the Theoretical Chemistry Institute.  All rights reserved.

          Cite this program as:

          NBO 6.0.  E. D. Glendening, J. K. Badenhoop, A. E. Reed,
          J. E. Carpenter, J. A. Bohmann, C. M. Morales, C. R. Landis,
          and F. Weinhold (Theoretical Chemistry Institute, University
          of Wisconsin, Madison, WI, 2013); http://nbo6.chem.wisc.edu/

       /NPA    / : Natural Population Analysis
       /NBO    / : Natural Bond Orbital Analysis
       /AONBO  / : Write the AO to NBO transformation to lfn77
       /FILE   / : Set to 0929

 Filename set to 0929

 Job title:  *** NBO job generated by orca_scf

 Warning: MOs are non-orthogonal; program will continue

 Warning: -3082.82182 electrons reside outside the linearly independent MO space


 NATURAL POPULATIONS:  Natural atomic orbital occupancies

  NAO Atom No lang   Type(AO)    Occupancy      Energy
 -------------------------------------------------------
   1    O  1  s      Cor( 1s)     1.99974     -18.57635
   2    O  1  s      Val( 2s)     1.67903      -0.78369
   3    O  1  s      Ryd( 3s)     0.00174       1.35516
   4    O  1  px     Val( 2p)     1.73819      -0.23988
   5    O  1  px     Ryd( 3p)     0.00211       1.07992
   6    O  1  py     Val( 2p)     1.61975      -0.25656
   7    O  1  py     Ryd( 3p)     0.00127       1.03034
   8    O  1  pz     Val( 2p)     1.67331      -0.24337
   9    O  1  pz     Ryd( 3p)     0.00175       1.10356
  10    O  1  dxy    Ryd( 3d)     0.00082       2.86497
  11    O  1  dxz    Ryd( 3d)     0.00132       2.92998
  12    O  1  dyz    Ryd( 3d)     0.00108       2.70157
  13    O  1  dx2y2  Ryd( 3d)     0.00059       2.75529
  14    O  1  dz2    Ryd( 3d)     0.00153       2.89713

  15    C  2  s      Cor( 1s)     1.99905      -9.84154
  16    C  2  s      Val( 2s)     0.99984      -0.20824
  17    C  2  s      Ryd( 3s)     0.00259       0.71923
  18    C  2  px     Val( 2p)     1.08739      -0.08068
  19    C  2  px     Ryd( 3p)     0.00337       0.64164
  20    C  2  py     Val( 2p)     0.87318      -0.07796
  21    C  2  py     Ryd( 3p)     0.00215       0.52528
  22    C  2  pz     Val( 2p)     1.11708      -0.08056
  23    C  2  pz     Ryd( 3p)     0.00163       0.48098
  24    C  2  dxy    Ryd( 3d)     0.00160       2.21511
  25    C  2  dxz    Ryd( 3d)     0.00097       2.27712
  26    C  2  dyz    Ryd( 3d)     0.00110       2.02242
  27    C  2  dx2y2  Ryd( 3d)     0.00165       2.05688
  28    C  2  dz2    Ryd( 3d)     0.00089       2.16075

  29    C  3  s      Cor( 1s)     1.99890      -9.78028
  30    C  3  s      Val( 2s)     0.96552      -0.15374
  31    C  3  s      Ryd( 3s)     0.00270       0.51239
  32    C  3  px     Val( 2p)     1.12179      -0.04503
  33    C  3  px     Ryd( 3p)     0.00299       0.66580
  34    C  3  py     Val( 2p)     0.96343      -0.10822
  35    C  3  py     Ryd( 3p)     0.00326       0.54024
  36    C  3  pz     Val( 2p)     1.10644      -0.05517
  37    C  3  pz     Ryd( 3p)     0.00394       0.81070
  38    C  3  dxy    Ryd( 3d)     0.00063       1.95957
  39    C  3  dxz    Ryd( 3d)     0.00081       2.39972
  40    C  3  dyz    Ryd( 3d)     0.00026       1.89273
  41    C  3  dx2y2  Ryd( 3d)     0.00060       2.16930
  42    C  3  dz2    Ryd( 3d)     0.00062       2.17945

  43    C  4  s      Cor( 1s)     1.99876      -9.78547
  44    C  4  s      Val( 2s)     0.94861      -0.13273
  45    C  4  s      Ryd( 3s)     0.00151       0.48163
  46    C  4  px     Val( 2p)     1.15745      -0.05786
  47    C  4  px     Ryd( 3p)     0.00124       0.67444
  48    C  4  py     Val( 2p)     1.04349      -0.10883
  49    C  4  py     Ryd( 3p)     0.00101       0.53566
  50    C  4  pz     Val( 2p)     1.13210      -0.05590
  51    C  4  pz     Ryd( 3p)     0.00470       0.78949
  52    C  4  dxy    Ryd( 3d)     0.00060       1.96097
  53    C  4  dxz    Ryd( 3d)     0.00086       2.40843
  54    C  4  dyz    Ryd( 3d)     0.00042       1.91497
  55    C  4  dx2y2  Ryd( 3d)     0.00062       2.16019
  56    C  4  dz2    Ryd( 3d)     0.00067       2.20636

  57    C  5  s      Cor( 1s)     1.99867      -9.76037
  58    C  5  s      Val( 2s)     0.87509      -0.06414
  59    C  5  s      Ryd( 3s)     0.00203       0.56848
  60    C  5  px     Val( 2p)     1.02189      -0.06482
  61    C  5  px     Ryd( 3p)     0.00385       0.65309
  62    C  5  py     Val( 2p)     1.02375      -0.06985
  63    C  5  py     Ryd( 3p)     0.00065       0.58811
  64    C  5  pz     Val( 2p)     1.12100      -0.00832
  65    C  5  pz     Ryd( 3p)     0.00184       0.81829
  66    C  5  dxy    Ryd( 3d)     0.00025       1.78854
  67    C  5  dxz    Ryd( 3d)     0.00081       2.30061
  68    C  5  dyz    Ryd( 3d)     0.00081       2.15910
  69    C  5  dx2y2  Ryd( 3d)     0.00025       1.78294
  70    C  5  dz2    Ryd( 3d)     0.00101       2.46672

  71    C  6  s      Cor( 1s)     1.99843      -9.75977
  72    C  6  s      Val( 2s)     0.99585      -0.12016
  73    C  6  s      Ryd( 3s)     0.00049       0.53154
  74    C  6  px     Val( 2p)     1.02995      -0.06871
  75    C  6  px     Ryd( 3p)     0.00036       0.55885
  76    C  6  py     Val( 2p)     1.00339      -0.07694
  77    C  6  py     Ryd( 3p)     0.00077       0.53127
  78    C  6  pz     Val( 2p)     1.16402       0.00894
  79    C  6  pz     Ryd( 3p)     0.00069       0.80339
  80    C  6  dxy    Ryd( 3d)     0.00015       1.79578
  81    C  6  dxz    Ryd( 3d)     0.00069       2.32131
  82    C  6  dyz    Ryd( 3d)     0.00059       2.17531
  83    C  6  dx2y2  Ryd( 3d)     0.00014       1.76820
  84    C  6  dz2    Ryd( 3d)     0.00088       2.48626

  85    H  7  s      Val( 1s)     0.54152       0.07721
  86    H  7  s      Ryd( 2s)     0.00171       0.38474
  87    H  7  px     Ryd( 2p)     0.00159       1.90194
  88    H  7  py     Ryd( 2p)     0.00115       1.74089
  89    H  7  pz     Ryd( 2p)     0.00155       2.26258

  90    H  8  s      Val( 1s)     0.79916       0.04103
  91    H  8  s      Ryd( 2s)     0.00297       0.31359
  92    H  8  px     Ryd( 2p)     0.00046       1.93393
  93    H  8  py     Ryd( 2p)     0.00052       2.00698
  94    H  8  pz     Ryd( 2p)     0.00027       1.75544

  95    H  9  s      Val( 1s)     0.81201       0.04578
  96    H  9  s      Ryd( 2s)     0.00312       0.33131
  97    H  9  px     Ryd( 2p)     0.00053       2.02262
  98    H  9  py     Ryd( 2p)     0.00017       1.68729
  99    H  9  pz     Ryd( 2p)     0.00049       1.94717

 100    H 10  s      Val( 1s)     0.77033       0.07229
 101    H 10  s      Ryd( 2s)     0.00314       0.32484
 102    H 10  px     Ryd( 2p)     0.00047       2.05776
 103    H 10  py     Ryd( 2p)     0.00018       1.61946
 104    H 10  pz     Ryd( 2p)     0.00057       2.09874

 105    H 11  s      Val( 1s)     0.76041       0.06256
 106    H 11  s      Ryd( 2s)     0.00280       0.32768
 107    H 11  px     Ryd( 2p)     0.00044       2.07279
 108    H 11  py     Ryd( 2p)     0.00019       1.62283
 109    H 11  pz     Ryd( 2p)     0.00053       2.11545

 110    H 12  s      Val( 1s)     0.76497       0.06232
 111    H 12  s      Ryd( 2s)     0.00022       0.26230
 112    H 12  px     Ryd( 2p)     0.00037       1.75328
 113    H 12  py     Ryd( 2p)     0.00036       1.68727
 114    H 12  pz     Ryd( 2p)     0.00088       2.25578

   1 low occupancy (<1.9990e) core orbital  found on  C  3
   1 low occupancy (<1.9990e) core orbital  found on  C  4
   1 low occupancy (<1.9990e) core orbital  found on  C  5
   1 low occupancy (<1.9990e) core orbital  found on  C  6


 Summary of Natural Population Analysis:

                                     Natural Population
             Natural    ---------------------------------------------
  Atom No    Charge        Core      Valence    Rydberg      Total
 --------------------------------------------------------------------
    O  1   -0.72221      1.99974     6.71027    0.01220     8.72221
    C  2   -0.09249      1.99905     4.07748    0.01595     6.09249
    C  3   -0.17188      1.99890     4.15718    0.01580     6.17188
    C  4   -0.29204      1.99876     4.28165    0.01163     6.29204
    C  5   -0.05190      1.99867     4.04174    0.01150     6.05190
    C  6   -0.19642      1.99843     4.19321    0.00478     6.19642
    H  7    0.45249      0.00000     0.54152    0.00600     0.54751
    H  8    0.19662      0.00000     0.79916    0.00422     0.80338
    H  9    0.18369      0.00000     0.81201    0.00430     0.81631
    H 10    0.22531      0.00000     0.77033    0.00436     0.77469
    H 11    0.23564      0.00000     0.76041    0.00395     0.76436
    H 12    0.23320      0.00000     0.76497    0.00183     0.76680
 ====================================================================
 * Total *  0.00000     11.99355    31.90994    0.09651    44.00000

                                 Natural Population
 ---------------------------------------------------------
   Core                      11.99355 ( 99.9462% of   12)
   Valence                   31.90994 ( 99.7186% of   32)
   Natural Minimal Basis     43.90349 ( 99.7807% of   44)
   Natural Rydberg Basis      0.09651 (  0.2193% of   44)
 ---------------------------------------------------------

    Atom No         Natural Electron Configuration
 ----------------------------------------------------------------------------
      O  1      [core]2s( 1.68)2p( 5.03)3p( 0.01)3d( 0.01)
      C  2      [core]2s( 1.00)2p( 3.08)3p( 0.01)3d( 0.01)
      C  3      [core]2s( 0.97)2p( 3.19)3p( 0.01)
      C  4      [core]2s( 0.95)2p( 3.33)3p( 0.01)
      C  5      [core]2s( 0.88)2p( 3.17)3p( 0.01)
      C  6      [core]2s( 1.00)2p( 3.20)
      H  7            1s( 0.54)
      H  8            1s( 0.80)
      H  9            1s( 0.81)
      H 10            1s( 0.77)
      H 11            1s( 0.76)
      H 12            1s( 0.76)


 NATURAL BOND ORBITAL ANALYSIS:

                            Occupancies       Lewis Structure    Low   High
         Max    Occ     -------------------  -----------------   occ   occ
  Cycle  Ctr   Thresh    Lewis   non-Lewis     CR  BD  nC  LP    (L)   (NL)
 ============================================================================
    1     2     1.90    42.64723   1.35277      6  13   0   3     1      1
    2     2     1.89    43.50299   0.49701      6  14   0   2     0      1
 ----------------------------------------------------------------------------

 Structure accepted: No low occupancy Lewis orbitals

 -------------------------------------------------------
   Core                     11.99355 ( 99.946% of  12)
   Valence Lewis            31.50944 ( 98.467% of  32)
  ==================      =============================
   Total Lewis              43.50299 ( 98.870% of  44)
  -----------------------------------------------------
   Valence non-Lewis         0.43394 (  0.986% of  44)
   Rydberg non-Lewis         0.06307 (  0.143% of  44)
  ==================      =============================
   Total non-Lewis           0.49701 (  1.130% of  44)
 -------------------------------------------------------


     (Occupancy)   Bond orbital / Coefficients / Hybrids
 ------------------ Lewis ------------------------------------------------------
   1. (1.99974) CR ( 1) O  1            s(100.00%)
                                         1.0000  0.0000  0.0000  0.0000  0.0000
                                         0.0000  0.0000  0.0000  0.0000  0.0000
                                         0.0000  0.0000  0.0000  0.0000
   2. (1.99905) CR ( 1) C  2            s(100.00%)
                                         1.0000  0.0000  0.0000  0.0000  0.0000
                                         0.0000  0.0000  0.0000  0.0000  0.0000
                                         0.0000  0.0000  0.0000  0.0000
   3. (1.99890) CR ( 1) C  3            s(100.00%)
                                         1.0000  0.0000  0.0000  0.0000  0.0000
                                         0.0000  0.0000  0.0000  0.0000  0.0000
                                         0.0000  0.0000  0.0000  0.0000
   4. (1.99876) CR ( 1) C  4            s(100.00%)
                                         1.0000  0.0000  0.0000  0.0000  0.0000
                                         0.0000  0.0000  0.0000  0.0000  0.0000
                                         0.0000  0.0000  0.0000  0.0000
   5. (1.99867) CR ( 1) C  5            s(100.00%)
                                         1.0000  0.0000  0.0000  0.0000  0.0000
                                         0.0000  0.0000  0.0000  0.0000  0.0000
                                         0.0000  0.0000  0.0000  0.0000
   6. (1.99843) CR ( 1) C  6            s(100.00%)
                                         1.0000  0.0000  0.0000  0.0000  0.0000
                                         0.0000  0.0000  0.0000  0.0000  0.0000
                                         0.0000  0.0000  0.0000  0.0000
   7. (1.98158) LP ( 1) O  1            s( 48.61%)p 1.06( 51.35%)d 0.00(  0.04%)
                                         0.0000  0.6970 -0.0145  0.0703 -0.0035
                                        -0.5173  0.0044  0.4908 -0.0067  0.0055
                                         0.0021  0.0182  0.0067 -0.0055
   8. (1.95233) LP ( 2) O  1            s(  0.70%)p99.99( 99.24%)d 0.09(  0.06%)
                                         0.0000  0.0834 -0.0022 -0.7843  0.0144
                                         0.4256 -0.0085  0.4426 -0.0071 -0.0119
                                         0.0158 -0.0020 -0.0054 -0.0145
   9. (1.99120) BD ( 1) O  1- C  2
               ( 66.67%)   0.8165* O  1 s( 31.14%)p 2.21( 68.78%)d 0.00(  0.08%)
                                         0.0000  0.5579  0.0091  0.4002  0.0033
                                         0.7209  0.0013 -0.0891  0.0030  0.0178
                                        -0.0018 -0.0143 -0.0154 -0.0065
               ( 33.33%)   0.5773* C  2 s( 20.85%)p 3.79( 78.96%)d 0.01(  0.20%)
                                         0.0000  0.4546  0.0421 -0.4494 -0.0155
                                        -0.7649 -0.0388  0.0292  0.0016  0.0346
                                        -0.0004 -0.0031 -0.0175 -0.0213
  10. (1.98718) BD ( 1) O  1- H  7
               ( 72.90%)   0.8538* O  1 s( 19.58%)p 4.10( 80.30%)d 0.01(  0.13%)
                                         0.0000  0.4419  0.0223 -0.4673 -0.0231
                                        -0.1742 -0.0221 -0.7435 -0.0207 -0.0012
                                         0.0230 -0.0041  0.0046  0.0262
               ( 27.10%)   0.5205* H  7 s( 99.69%)p 0.00(  0.31%)
                                         0.9984 -0.0036  0.0316  0.0147  0.0438
  11. (1.97790) BD ( 1) C  2- C  3
               ( 49.82%)   0.7058* C  2 s( 30.50%)p 2.28( 69.45%)d 0.00(  0.04%)
                                         0.0000  0.5523  0.0054  0.2845 -0.0103
                                         0.1903 -0.0036  0.7597 -0.0044  0.0010
                                         0.0102  0.0067  0.0008  0.0170
               ( 50.18%)   0.7084* C  3 s( 32.89%)p 2.04( 67.07%)d 0.00(  0.04%)
                                         0.0000  0.5734  0.0120 -0.2842 -0.0193
                                        -0.2018 -0.0040 -0.7408  0.0066  0.0034
                                         0.0084  0.0081  0.0033  0.0159
  12. (1.97114) BD ( 1) C  2- H  8
               ( 60.38%)   0.7771* C  2 s( 23.76%)p 3.21( 76.20%)d 0.00(  0.04%)
                                         0.0000  0.4872 -0.0130 -0.5561  0.0102
                                         0.6037 -0.0027 -0.2968 -0.0054 -0.0177
                                         0.0060 -0.0056 -0.0031 -0.0072
               ( 39.62%)   0.6294* H  8 s( 99.90%)p 0.00(  0.10%)
                                         0.9995 -0.0069  0.0188 -0.0236  0.0102
  13. (1.98433) BD ( 1) C  2- H  9
               ( 60.05%)   0.7749* C  2 s( 25.02%)p 2.99( 74.94%)d 0.00(  0.04%)
                                         0.0000  0.5000 -0.0137  0.6373 -0.0154
                                        -0.1001 -0.0001 -0.5770 -0.0027 -0.0023
                                        -0.0156  0.0006  0.0119  0.0028
               ( 39.95%)   0.6321* H  9 s( 99.90%)p 0.00(  0.10%)
                                         0.9995 -0.0076 -0.0233  0.0033  0.0209
  14. (1.97565) BD ( 1) C  3- C  4
               ( 49.01%)   0.7000* C  3 s( 39.22%)p 1.55( 60.73%)d 0.00(  0.05%)
                                         0.0000  0.6260  0.0172  0.7446  0.0126
                                         0.1716  0.0035  0.1522  0.0114  0.0098
                                         0.0056  0.0022  0.0184 -0.0082
               ( 50.99%)   0.7141* C  4 s( 39.75%)p 1.51( 60.20%)d 0.00(  0.05%)
                                         0.0000  0.6304  0.0134 -0.7338 -0.0076
                                        -0.2116 -0.0028 -0.1363 -0.0075  0.0089
                                         0.0036  0.0024  0.0181 -0.0066
  15. (1.89415) BD ( 2) C  3- C  4
               ( 47.72%)   0.6908* C  3 s(  0.01%)p 1.00( 99.93%)d 0.00(  0.07%)
                                         0.0000  0.0061 -0.0048 -0.1891 -0.0004
                                         0.9638 -0.0156 -0.1853 -0.0002  0.0222
                                        -0.0064 -0.0007 -0.0110 -0.0010
               ( 52.28%)   0.7231* C  4 s(  0.01%)p99.99( 99.94%)d 4.11(  0.05%)
                                         0.0000  0.0104 -0.0013 -0.2249 -0.0019
                                         0.9498 -0.0137 -0.2156  0.0017 -0.0191
                                         0.0038  0.0033  0.0079 -0.0013
  16. (1.97325) BD ( 1) C  3- H 10
               ( 61.58%)   0.7847* C  3 s( 27.93%)p 2.58( 72.05%)d 0.00(  0.03%)
                                         0.0000  0.5280 -0.0225 -0.5725  0.0001
                                         0.0047 -0.0018  0.6266 -0.0034  0.0002
                                        -0.0138  0.0016  0.0073  0.0062
               ( 38.42%)   0.6198* H 10 s( 99.89%)p 0.00(  0.11%)
                                         0.9994 -0.0050  0.0216  0.0008 -0.0250
  17. (1.97703) BD ( 1) C  4- C  5
               ( 50.11%)   0.7079* C  4 s( 33.02%)p 2.03( 66.93%)d 0.00(  0.06%)
                                         0.0000  0.5745  0.0078  0.2924  0.0162
                                         0.2284  0.0015  0.7289 -0.0075  0.0046
                                         0.0101  0.0110  0.0033  0.0174
               ( 49.89%)   0.7063* C  5 s( 48.26%)p 1.07( 51.70%)d 0.00(  0.04%)
                                         0.0000  0.6944 -0.0181 -0.2522  0.0158
                                        -0.2018  0.0057 -0.6421  0.0100  0.0031
                                         0.0102  0.0085  0.0007  0.0147
  18. (1.96151) BD ( 1) C  4- H 11
               ( 62.04%)   0.7877* C  4 s( 27.22%)p 2.67( 72.75%)d 0.00(  0.03%)
                                         0.0000  0.5214 -0.0197  0.5696  0.0058
                                        -0.0149  0.0021 -0.6346  0.0096  0.0011
                                        -0.0130  0.0007  0.0087  0.0049
               ( 37.96%)   0.6161* H 11 s( 99.90%)p 0.00(  0.10%)
                                         0.9995 -0.0055 -0.0209  0.0013  0.0239
  19. (1.98523) BD ( 1) C  5- C  6
               ( 51.35%)   0.7166* C  5 s( 51.60%)p 0.94( 48.33%)d 0.00(  0.07%)
                                         0.0000  0.7181  0.0183  0.2608  0.0084
                                         0.1982  0.0070  0.6128  0.0191  0.0049
                                         0.0151  0.0115  0.0016  0.0180
               ( 48.65%)   0.6975* C  6 s( 53.02%)p 0.88( 46.91%)d 0.00(  0.07%)
                                         0.0000  0.7281  0.0098 -0.2588  0.0020
                                        -0.1924  0.0017 -0.6042  0.0014  0.0050
                                         0.0159  0.0116  0.0015  0.0182
  20. (1.98078) BD ( 2) C  5- C  6
               ( 50.04%)   0.7074* C  5 s(  0.02%)p99.99( 99.92%)d 2.97(  0.06%)
                                         0.0000  0.0131 -0.0057 -0.9111  0.0160
                                        -0.0892  0.0053  0.4009  0.0078 -0.0072
                                        -0.0154  0.0012 -0.0081  0.0158
               ( 49.96%)   0.7068* C  6 s(  0.01%)p 1.00( 99.92%)d 0.00(  0.07%)
                                         0.0000 -0.0050 -0.0083 -0.9074  0.0093
                                        -0.0864  0.0033  0.4101  0.0053  0.0074
                                         0.0164 -0.0012  0.0084 -0.0167
  21. (1.92445) BD ( 3) C  5- C  6
               ( 50.74%)   0.7123* C  5 s(  0.00%)p 1.00( 99.95%)d 0.00(  0.05%)
                                         0.0000 -0.0009 -0.0004 -0.1928 -0.0024
                                         0.9547 -0.0016 -0.2255 -0.0056  0.0078
                                        -0.0057  0.0161 -0.0079 -0.0072
               ( 49.26%)   0.7018* C  6 s(  0.00%)p 1.00( 99.93%)d 0.00(  0.07%)
                                         0.0000 -0.0003  0.0036 -0.1916 -0.0008
                                         0.9555 -0.0064 -0.2225 -0.0023 -0.0080
                                         0.0066 -0.0200  0.0087  0.0089
  22. (1.99174) BD ( 1) C  6- H 12
               ( 61.74%)   0.7858* C  6 s( 46.85%)p 1.13( 53.11%)d 0.00(  0.04%)
                                         0.0000  0.6844 -0.0079  0.2687  0.0082
                                         0.2045  0.0064  0.6454  0.0182  0.0034
                                         0.0113  0.0086  0.0009  0.0141
               ( 38.26%)   0.6185* H 12 s( 99.89%)p 0.00(  0.11%)
                                         0.9994 -0.0001 -0.0123 -0.0093 -0.0297
 ---------------- non-Lewis ----------------------------------------------------
  23. (0.02225) BD*( 1) O  1- C  2
               ( 33.33%)   0.5773* O  1 s( 31.14%)p 2.21( 68.78%)d 0.00(  0.08%)
                                         0.0000 -0.5579 -0.0091 -0.4002 -0.0033
                                        -0.7209 -0.0013  0.0891 -0.0030 -0.0178
                                         0.0018  0.0143  0.0154  0.0065
               ( 66.67%)  -0.8165* C  2 s( 20.85%)p 3.79( 78.96%)d 0.01(  0.20%)
                                         0.0000 -0.4546 -0.0421  0.4494  0.0155
                                         0.7649  0.0388 -0.0292 -0.0016 -0.0346
                                         0.0004  0.0031  0.0175  0.0213
  24. (0.00649) BD*( 1) O  1- H  7
               ( 27.10%)   0.5205* O  1 s( 19.58%)p 4.10( 80.30%)d 0.01(  0.13%)
                                         0.0000 -0.4419 -0.0223  0.4673  0.0231
                                         0.1742  0.0221  0.7435  0.0207  0.0012
                                        -0.0230  0.0041 -0.0046 -0.0262
               ( 72.90%)  -0.8538* H  7 s( 99.69%)p 0.00(  0.31%)
                                        -0.9984  0.0036 -0.0316 -0.0147 -0.0438
  25. (0.02275) BD*( 1) C  2- C  3
               ( 50.18%)   0.7084* C  2 s( 30.50%)p 2.28( 69.45%)d 0.00(  0.04%)
                                         0.0000 -0.5523 -0.0054 -0.2845  0.0103
                                        -0.1903  0.0036 -0.7597  0.0044 -0.0010
                                        -0.0102 -0.0067 -0.0008 -0.0170
               ( 49.82%)  -0.7058* C  3 s( 32.89%)p 2.04( 67.07%)d 0.00(  0.04%)
                                         0.0000 -0.5734 -0.0120  0.2842  0.0193
                                         0.2018  0.0040  0.7408 -0.0066 -0.0034
                                        -0.0084 -0.0081 -0.0033 -0.0159
  26. (0.03145) BD*( 1) C  2- H  8
               ( 39.62%)   0.6294* C  2 s( 23.76%)p 3.21( 76.20%)d 0.00(  0.04%)
                                         0.0000 -0.4872  0.0130  0.5561 -0.0102
                                        -0.6037  0.0027  0.2968  0.0054  0.0177
                                        -0.0060  0.0056  0.0031  0.0072
               ( 60.38%)  -0.7771* H  8 s( 99.90%)p 0.00(  0.10%)
                                        -0.9995  0.0069 -0.0188  0.0236 -0.0102
  27. (0.03341) BD*( 1) C  2- H  9
               ( 39.95%)   0.6321* C  2 s( 25.02%)p 2.99( 74.94%)d 0.00(  0.04%)
                                         0.0000 -0.5000  0.0137 -0.6373  0.0154
                                         0.1001  0.0001  0.5770  0.0027  0.0023
                                         0.0156 -0.0006 -0.0119 -0.0028
               ( 60.05%)  -0.7749* H  9 s( 99.90%)p 0.00(  0.10%)
                                        -0.9995  0.0076  0.0233 -0.0033 -0.0209
  28. (0.01758) BD*( 1) C  3- C  4
               ( 50.99%)   0.7141* C  3 s( 39.22%)p 1.55( 60.73%)d 0.00(  0.05%)
                                         0.0000  0.6260  0.0172  0.7446  0.0126
                                         0.1716  0.0035  0.1522  0.0114  0.0098
                                         0.0056  0.0022  0.0184 -0.0082
               ( 49.01%)  -0.7000* C  4 s( 39.75%)p 1.51( 60.20%)d 0.00(  0.05%)
                                         0.0000  0.6304  0.0134 -0.7338 -0.0076
                                        -0.2116 -0.0028 -0.1363 -0.0075  0.0089
                                         0.0036  0.0024  0.0181 -0.0066
  29. (0.10073) BD*( 2) C  3- C  4
               ( 52.28%)   0.7231* C  3 s(  0.01%)p 1.00( 99.93%)d 0.00(  0.07%)
                                         0.0000 -0.0061  0.0048  0.1891  0.0004
                                        -0.9638  0.0156  0.1853  0.0002 -0.0222
                                         0.0064  0.0007  0.0110  0.0010
               ( 47.72%)  -0.6908* C  4 s(  0.01%)p99.99( 99.94%)d 4.11(  0.05%)
                                         0.0000 -0.0104  0.0013  0.2249  0.0019
                                        -0.9498  0.0137  0.2156 -0.0017  0.0191
                                        -0.0038 -0.0033 -0.0079  0.0013
  30. (0.02123) BD*( 1) C  3- H 10
               ( 38.42%)   0.6198* C  3 s( 27.93%)p 2.58( 72.05%)d 0.00(  0.03%)
                                         0.0000 -0.5280  0.0225  0.5725 -0.0001
                                        -0.0047  0.0018 -0.6266  0.0034 -0.0002
                                         0.0138 -0.0016 -0.0073 -0.0062
               ( 61.58%)  -0.7847* H 10 s( 99.89%)p 0.00(  0.11%)
                                        -0.9994  0.0050 -0.0216 -0.0008  0.0250
  31. (0.02440) BD*( 1) C  4- C  5
               ( 49.89%)   0.7063* C  4 s( 33.02%)p 2.03( 66.93%)d 0.00(  0.06%)
                                         0.0000 -0.5745 -0.0078 -0.2924 -0.0162
                                        -0.2284 -0.0015 -0.7289  0.0075 -0.0046
                                        -0.0101 -0.0110 -0.0033 -0.0174
               ( 50.11%)  -0.7079* C  5 s( 48.26%)p 1.07( 51.70%)d 0.00(  0.04%)
                                         0.0000 -0.6944  0.0181  0.2522 -0.0158
                                         0.2018 -0.0057  0.6421 -0.0100 -0.0031
                                        -0.0102 -0.0085 -0.0007 -0.0147
  32. (0.02674) BD*( 1) C  4- H 11
               ( 37.96%)   0.6161* C  4 s( 27.22%)p 2.67( 72.75%)d 0.00(  0.03%)
                                         0.0000 -0.5214  0.0197 -0.5696 -0.0058
                                         0.0149 -0.0021  0.6346 -0.0096 -0.0011
                                         0.0130 -0.0007 -0.0087 -0.0049
               ( 62.04%)  -0.7877* H 11 s( 99.90%)p 0.00(  0.10%)
                                        -0.9995  0.0055  0.0209 -0.0013 -0.0239
  33. (0.01747) BD*( 1) C  5- C  6
               ( 48.65%)   0.6975* C  5 s( 51.60%)p 0.94( 48.33%)d 0.00(  0.07%)
                                         0.0000 -0.7181 -0.0183 -0.2608 -0.0084
                                        -0.1982 -0.0070 -0.6128 -0.0191 -0.0049
                                        -0.0151 -0.0115 -0.0016 -0.0180
               ( 51.35%)  -0.7166* C  6 s( 53.02%)p 0.88( 46.91%)d 0.00(  0.07%)
                                         0.0000 -0.7281 -0.0098  0.2588 -0.0020
                                         0.1924 -0.0017  0.6042 -0.0014 -0.0050
                                        -0.0159 -0.0116 -0.0015 -0.0182
  34. (0.02594) BD*( 2) C  5- C  6
               ( 49.96%)   0.7068* C  5 s(  0.02%)p99.99( 99.92%)d 2.97(  0.06%)
                                         0.0000  0.0131 -0.0057 -0.9111  0.0160
                                        -0.0892  0.0053  0.4009  0.0078 -0.0072
                                        -0.0154  0.0012 -0.0081  0.0158
               ( 50.04%)  -0.7074* C  6 s(  0.01%)p 1.00( 99.92%)d 0.00(  0.07%)
                                         0.0000 -0.0050 -0.0083 -0.9074  0.0093
                                        -0.0864  0.0033  0.4101  0.0053  0.0074
                                         0.0164 -0.0012  0.0084 -0.0167
  35. (0.07715) BD*( 3) C  5- C  6
               ( 49.26%)   0.7018* C  5 s(  0.00%)p 1.00( 99.95%)d 0.00(  0.05%)
                                         0.0000  0.0009  0.0004  0.1928  0.0024
                                        -0.9547  0.0016  0.2255  0.0056 -0.0078
                                         0.0057 -0.0161  0.0079  0.0072
               ( 50.74%)  -0.7123* C  6 s(  0.00%)p 1.00( 99.93%)d 0.00(  0.07%)
                                         0.0000  0.0003 -0.0036  0.1916  0.0008
                                        -0.9555  0.0064  0.2225  0.0023  0.0080
                                        -0.0066  0.0200 -0.0087 -0.0089
  36. (0.00635) BD*( 1) C  6- H 12
               ( 38.26%)   0.6185* C  6 s( 46.85%)p 1.13( 53.11%)d 0.00(  0.04%)
                                         0.0000 -0.6844  0.0079 -0.2687 -0.0082
                                        -0.2045 -0.0064 -0.6454 -0.0182 -0.0034
                                        -0.0113 -0.0086 -0.0009 -0.0141
               ( 61.74%)  -0.7858* H 12 s( 99.89%)p 0.00(  0.11%)
                                        -0.9994  0.0001  0.0123  0.0093  0.0297
  37. (0.00144) RY ( 1) O  1            s( 10.11%)p 7.95( 80.40%)d 0.94(  9.49%)
                                         0.0000  0.0021  0.3180 -0.0102 -0.4915
                                         0.0017  0.3535  0.0067  0.6612 -0.0432
                                         0.1717  0.1958 -0.1589  0.0043
  38. (0.00134) RY ( 2) O  1            s( 21.32%)p 3.10( 66.11%)d 0.59( 12.57%)
                                         0.0000  0.0028  0.4617  0.0031  0.6185
                                        -0.0092 -0.3500  0.0000  0.3950  0.1734
                                         0.1177  0.2007  0.2031  0.0170
  39. (0.00017) RY ( 3) O  1            s( 58.54%)p 0.67( 38.95%)d 0.04(  2.51%)
                                         0.0000 -0.0075  0.7651  0.0099  0.0131
                                        -0.0053  0.3306  0.0217 -0.5286 -0.0870
                                         0.0491 -0.1101 -0.0311  0.0449
  40. (0.00005) RY ( 4) O  1            s(  3.33%)p23.37( 77.87%)d 5.64( 18.80%)
  41. (0.00002) RY ( 5) O  1            s(  3.24%)p 4.74( 15.34%)d25.16( 81.42%)
  42. (0.00001) RY ( 6) O  1            s(  3.35%)p 1.94(  6.49%)d26.89( 90.16%)
  43. (0.00000) RY ( 7) O  1            s(  0.03%)p46.61(  1.36%)d99.99( 98.61%)
  44. (0.00000) RY ( 8) O  1            s(  0.03%)p99.99(  7.07%)d99.99( 92.91%)
  45. (0.00000) RY ( 9) O  1            s(  0.03%)p99.99(  6.74%)d99.99( 93.23%)
  46. (0.00338) RY ( 1) C  2            s( 14.93%)p 4.53( 67.56%)d 1.17( 17.51%)
                                         0.0000  0.0106  0.3863  0.0170  0.8016
                                        -0.0014  0.0418 -0.0094  0.1758  0.0518
                                         0.3455  0.1503  0.1653 -0.0560
  47. (0.00295) RY ( 2) C  2            s( 16.78%)p 3.29( 55.17%)d 1.67( 28.05%)
                                         0.0000 -0.0089  0.4095  0.0051 -0.4369
                                         0.0258 -0.0843 -0.0152  0.5940 -0.0666
                                         0.1791  0.4512 -0.1906  0.0641
  48. (0.00166) RY ( 3) C  2            s(  1.61%)p14.26( 23.03%)d46.68( 75.36%)
                                         0.0000 -0.0116  0.1265 -0.0038 -0.1460
                                         0.0274 -0.4266 -0.0001  0.1617  0.4003
                                        -0.1847 -0.1158  0.7363  0.0609
  49. (0.00120) RY ( 4) C  2            s(  1.48%)p33.56( 49.68%)d32.99( 48.84%)
                                         0.0000  0.0038  0.1216 -0.0126 -0.1671
                                         0.0051  0.5711 -0.0051 -0.3776  0.4360
                                        -0.0179  0.5002  0.2033 -0.0801
  50. (0.00113) RY ( 5) C  2            s( 10.23%)p 4.16( 42.59%)d 4.61( 47.18%)
                                         0.0000 -0.0201  0.3193  0.0319  0.0247
                                         0.0476 -0.5323 -0.0059 -0.3723  0.3165
                                        -0.1074  0.0871 -0.4299 -0.4095
  51. (0.00014) RY ( 6) C  2            s(  3.40%)p10.64( 36.19%)d17.76( 60.41%)
                                         0.0000  0.0075  0.1843  0.0069  0.0726
                                         0.0174  0.4079  0.0088  0.4357  0.2778
                                        -0.4808 -0.3943 -0.1838 -0.3263
  52. (0.00009) RY ( 7) C  2            s( 22.44%)p 0.27(  5.99%)d 3.19( 71.57%)
  53. (0.00003) RY ( 8) C  2            s( 28.27%)p 0.63( 17.92%)d 1.90( 53.81%)
  54. (0.00001) RY ( 9) C  2            s(  0.72%)p 3.25(  2.33%)d99.99( 96.95%)
  55. (0.00488) RY ( 1) C  3            s( 13.22%)p 6.03( 79.69%)d 0.54(  7.08%)
                                         0.0000 -0.0112  0.3635 -0.0153 -0.2374
                                         0.0061  0.1513  0.0188  0.8468  0.0254
                                         0.2559  0.0485 -0.0142  0.0464
  56. (0.00374) RY ( 2) C  3            s(  1.84%)p52.27( 96.14%)d 1.10(  2.02%)
                                         0.0000 -0.0031  0.1356  0.0105 -0.5753
                                        -0.0086 -0.7887  0.0159 -0.0893  0.0694
                                         0.0331  0.0679  0.0069 -0.0982
  57. (0.00192) RY ( 3) C  3            s( 13.13%)p 5.64( 74.08%)d 0.97( 12.79%)
                                         0.0000 -0.0027  0.3623 -0.0112  0.7038
                                        -0.0128 -0.4684  0.0000  0.1610  0.1150
                                        -0.1987  0.1983 -0.1334  0.1345
  58. (0.00114) RY ( 4) C  3            s( 66.64%)p 0.44( 29.47%)d 0.06(  3.89%)
                                         0.0000 -0.0021  0.8163 -0.0175 -0.1274
                                         0.0045  0.3075  0.0132 -0.4283  0.1570
                                        -0.0392  0.0029  0.0434 -0.1040
  59. (0.00026) RY ( 5) C  3            s(  2.38%)p 4.58( 10.90%)d36.41( 86.72%)
                                         0.0000  0.0012  0.1543 -0.0167  0.2577
                                         0.0107 -0.1973 -0.0021 -0.0576 -0.4137
                                         0.5105 -0.5288  0.3752 -0.1224
  60. (0.00016) RY ( 6) C  3            s(  0.75%)p 5.28(  3.93%)d99.99( 95.32%)
                                         0.0000 -0.0047  0.0862  0.0136 -0.1350
                                         0.0151  0.0020  0.0108 -0.1435 -0.3505
                                         0.0739  0.1330  0.0300  0.8979
  61. (0.00009) RY ( 7) C  3            s(  0.28%)p16.47(  4.55%)d99.99( 95.17%)
  62. (0.00003) RY ( 8) C  3            s(  1.28%)p 0.97(  1.25%)d75.85( 97.47%)
  63. (0.00000) RY ( 9) C  3            s(  0.44%)p 0.47(  0.21%)d99.99( 99.35%)
  64. (0.00542) RY ( 1) C  4            s(  7.00%)p12.15( 85.00%)d 1.14(  8.01%)
                                         0.0000 -0.0059  0.2644  0.0141  0.0810
                                        -0.0004 -0.1189 -0.0195 -0.9103  0.0619
                                         0.2659  0.0686 -0.0288 -0.0048
  65. (0.00147) RY ( 2) C  4            s(  6.17%)p10.14( 62.56%)d 5.07( 31.28%)
                                         0.0000 -0.0039  0.2483  0.0052  0.3735
                                        -0.0152 -0.6606 -0.0032  0.2221 -0.2452
                                         0.2714 -0.3124  0.2592  0.1192
  66. (0.00088) RY ( 3) C  4            s(  0.24%)p99.99( 76.87%)d94.16( 22.89%)
                                         0.0000 -0.0078  0.0487 -0.0076  0.7923
                                         0.0064  0.3597 -0.0087  0.1071  0.2730
                                         0.1400  0.1367  0.0669 -0.3341
  67. (0.00053) RY ( 4) C  4            s( 68.56%)p 0.17( 11.37%)d 0.29( 20.07%)
                                         0.0000 -0.0028  0.8280  0.0124 -0.1857
                                         0.0051  0.0440 -0.0158  0.2773  0.2325
                                         0.0486  0.3232 -0.1519  0.1292
  68. (0.00027) RY ( 5) C  4            s(  0.37%)p49.00( 17.89%)d99.99( 81.75%)
                                         0.0000  0.0018  0.0604  0.0222 -0.4097
                                         0.0054 -0.0819  0.0107  0.0603  0.2130
                                         0.2505 -0.1519  0.3692 -0.7416
  69. (0.00012) RY ( 6) C  4            s(  6.67%)p 6.12( 40.81%)d 7.88( 52.53%)
                                         0.0000 -0.0023  0.2582  0.0042 -0.0705
                                         0.0001  0.6339 -0.0030 -0.0359 -0.3764
                                         0.1649 -0.4193  0.3719  0.2058
  70. (0.00008) RY ( 7) C  4            s(  7.05%)p 0.74(  5.20%)d12.44( 87.75%)
  71. (0.00001) RY ( 8) C  4            s(  3.85%)p 0.11(  0.43%)d24.86( 95.72%)
  72. (0.00000) RY ( 9) C  4            s(  0.10%)p 0.66(  0.07%)d99.99( 99.83%)
  73. (0.00443) RY ( 1) C  5            s(  7.43%)p11.30( 83.93%)d 1.16(  8.64%)
                                         0.0000  0.0099  0.2723 -0.0242 -0.8702
                                        -0.0066 -0.1382 -0.0036  0.2496  0.0935
                                         0.2124  0.0102  0.0939 -0.1539
  74. (0.00154) RY ( 2) C  5            s( 37.21%)p 1.58( 58.77%)d 0.11(  4.02%)
                                         0.0000 -0.0228  0.6096  0.0029  0.3182
                                        -0.0019  0.1356 -0.0211  0.6838  0.0190
                                        -0.1214  0.1229 -0.0545  0.0837
  75. (0.00137) RY ( 3) C  5            s(  8.25%)p 4.10( 33.82%)d 7.02( 57.93%)
                                         0.0000 -0.0006  0.2873 -0.0062 -0.0686
                                         0.0133  0.5393 -0.0095 -0.2056 -0.2691
                                         0.1777 -0.5595  0.2767  0.2928
  76. (0.00073) RY ( 4) C  5            s( 43.20%)p 1.10( 47.65%)d 0.21(  9.15%)
                                         0.0000  0.0121  0.6571 -0.0079  0.0191
                                        -0.0120 -0.2968 -0.0075 -0.6227  0.0571
                                        -0.1574  0.2186 -0.0715  0.1027
  77. (0.00007) RY ( 5) C  5            s(  3.25%)p 1.76(  5.72%)d28.02( 91.03%)
  78. (0.00002) RY ( 6) C  5            s(  0.43%)p14.88(  6.46%)d99.99( 93.10%)
  79. (0.00000) RY ( 7) C  5            s(  0.34%)p 1.86(  0.64%)d99.99( 99.01%)
  80. (0.00000) RY ( 8) C  5            s(  0.00%)p 1.00( 63.09%)d 0.58( 36.90%)
  81. (0.00000) RY ( 9) C  5            s(  0.01%)p 0.00(  0.01%)d 1.00( 99.99%)
  82. (0.00070) RY ( 1) C  6            s(  2.75%)p34.34( 94.56%)d 0.98(  2.69%)
                                         0.0000  0.0009  0.1659 -0.0008 -0.2550
                                         0.0008  0.8760  0.0050 -0.3364 -0.0520
                                         0.0446 -0.1237  0.0599  0.0574
  83. (0.00043) RY ( 2) C  6            s( 44.46%)p 1.24( 55.16%)d 0.01(  0.38%)
                                         0.0000  0.0087  0.6668 -0.0025 -0.1146
                                        -0.0010 -0.3902  0.0218 -0.6211  0.0222
                                         0.0107  0.0536 -0.0104  0.0141
  84. (0.00014) RY ( 3) C  6            s(  2.12%)p44.41( 94.36%)d 1.66(  3.52%)
                                         0.0000 -0.0005  0.1458  0.0036  0.9413
                                         0.0007  0.1890 -0.0041 -0.1475 -0.0576
                                        -0.1554 -0.0706 -0.0262 -0.0449
  85. (0.00007) RY ( 4) C  6            s( 43.44%)p 0.97( 42.01%)d 0.33( 14.55%)
  86. (0.00000) RY ( 5) C  6            s(  7.16%)p 1.32(  9.46%)d11.64( 83.37%)
  87. (0.00000) RY ( 6) C  6            s(  0.09%)p17.09(  1.53%)d99.99( 98.38%)
  88. (0.00000) RY ( 7) C  6            s(  0.00%)p 1.00(  0.02%)d99.99( 99.98%)
  89. (0.00000) RY ( 8) C  6            s(  0.07%)p40.61(  2.91%)d99.99( 97.01%)
  90. (0.00000) RY ( 9) C  6            s(  0.01%)p 1.00(  0.12%)d99.99( 99.88%)
  91. (0.00188) RY ( 1) H  7            s( 85.98%)p 0.16( 14.02%)
                                         0.0151  0.9271 -0.3173 -0.1970  0.0269
  92. (0.00155) RY ( 2) H  7            s(  2.34%)p41.69( 97.66%)
                                         0.0025  0.1530  0.7372 -0.5217 -0.4012
  93. (0.00090) RY ( 3) H  7            s(  6.63%)p14.08( 93.37%)
                                         0.0050  0.2575  0.2209  0.7856 -0.5174
  94. (0.00002) RY ( 4) H  7            s(  5.36%)p17.65( 94.64%)
  95. (0.00304) RY ( 1) H  8            s( 99.09%)p 0.01(  0.91%)
                                         0.0092  0.9954 -0.0036  0.0640 -0.0706
  96. (0.00021) RY ( 2) H  8            s(  0.07%)p99.99( 99.93%)
                                         0.0007  0.0262  0.1741  0.5224  0.8343
  97. (0.00017) RY ( 3) H  8            s(  0.16%)p99.99( 99.84%)
                                         0.0070  0.0394 -0.8937 -0.2713  0.3551
  98. (0.00003) RY ( 4) H  8            s(  0.78%)p99.99( 99.22%)
  99. (0.00320) RY ( 1) H  9            s( 98.84%)p 0.01(  1.16%)
                                         0.0095  0.9941  0.0390  0.0764 -0.0650
 100. (0.00017) RY ( 2) H  9            s(  0.20%)p99.99( 99.80%)
                                         0.0029  0.0448  0.6565 -0.3523  0.6654
 101. (0.00014) RY ( 3) H  9            s(  0.18%)p99.99( 99.82%)
                                         0.0118  0.0407 -0.0311 -0.8938 -0.4454
 102. (0.00003) RY ( 4) H  9            s(  0.88%)p99.99( 99.12%)
 103. (0.00319) RY ( 1) H 10            s( 99.11%)p 0.01(  0.89%)
                                         0.0079  0.9955 -0.0809 -0.0053  0.0479
 104. (0.00018) RY ( 2) H 10            s(  0.00%)p 1.00(100.00%)
                                         0.0004  0.0017  0.1524 -0.9818  0.1133
 105. (0.00008) RY ( 3) H 10            s(  0.09%)p99.99( 99.91%)
 106. (0.00006) RY ( 4) H 10            s(  0.91%)p99.99( 99.09%)
 107. (0.00286) RY ( 1) H 11            s( 98.59%)p 0.01(  1.41%)
                                         0.0091  0.9929  0.0546  0.0073 -0.1054
 108. (0.00020) RY ( 2) H 11            s(  0.04%)p99.99( 99.96%)
                                         0.0003  0.0207  0.2348 -0.9388  0.2513
 109. (0.00008) RY ( 3) H 11            s(  0.17%)p99.99( 99.83%)
 110. (0.00005) RY ( 4) H 11            s(  1.30%)p75.88( 98.70%)
 111. (0.00033) RY ( 1) H 12            s( 38.35%)p 1.61( 61.65%)
                                         0.0098  0.6192 -0.3328 -0.3941  0.5920
 112. (0.00030) RY ( 2) H 12            s(  2.58%)p37.79( 97.42%)
                                         0.0030  0.1605 -0.5479  0.8181  0.0686
 113. (0.00022) RY ( 3) H 12            s( 30.94%)p 2.23( 69.06%)
                                         0.0151  0.5560  0.7360  0.3768  0.0828
 114. (0.00006) RY ( 4) H 12            s( 28.25%)p 2.54( 71.75%)


 NHO DIRECTIONALITY AND BOND BENDING (deviation from line of nuclear centers at
                                      the position of maximum hybrid amplitude)

         [Thresholds for printing:  angular deviation  >  1.0 degree]
                                    p- or d-character  > 25.0%
                                    orbital occupancy  >  0.10e

                        Line of Centers        Hybrid 1             Hybrid 2
                        ---------------  -------------------  ------------------
           NBO            Theta   Phi    Theta   Phi    Dev   Theta   Phi    Dev
 ===============================================================================
   7. LP ( 1) O  1          --     --     46.4  279.6   --      --     --    --
   8. LP ( 2) O  1          --     --     64.4  150.9   --      --     --    --
   9. BD ( 1) O  1- C  2   94.0   60.0    96.9   61.2   3.1    87.5  239.6   1.5
  10. BD ( 1) O  1- H  7  148.1  195.6   146.6  199.6   2.6     --     --    --
  11. BD ( 1) C  2- C  3   25.0   35.4    23.7   34.7   1.3     --     --    --
  12. BD ( 1) C  2- H  8  108.6  129.8   109.0  131.6   1.8     --     --    --
  13. BD ( 1) C  2- H  9  130.4  355.1   131.2  351.9   2.6     --     --    --
  14. BD ( 1) C  3- C  4   79.5   14.5    79.7   13.0   1.4    98.7  195.3   2.0
  15. BD ( 2) C  3- C  4   79.5   14.5   100.4   99.8  87.4   102.4  104.5  87.7
  17. BD ( 1) C  4- C  5   26.6   38.7     --     --    --    154.6  219.8   1.3
  20. BD ( 2) C  5- C  6   28.1   36.9   112.8    5.8  88.3   115.0    5.2  89.4
  21. BD ( 3) C  5- C  6   28.1   36.9    76.3  281.8  89.1    77.8  281.0  89.2


 SECOND ORDER PERTURBATION THEORY ANALYSIS OF FOCK MATRIX IN NBO BASIS

     Threshold for printing:   0.50 kcal/mol
                                                          E(2) E(NL)-E(L) F(L,NL)
      Donor (L) NBO              Acceptor (NL) NBO      kcal/mol   a.u.    a.u.
 ===============================================================================

 within unit  1
    1. CR ( 1) O  1            47. RY ( 2) C  2            0.53   19.55   0.091
    1. CR ( 1) O  1            50. RY ( 5) C  2            1.16   19.86   0.135
    2. CR ( 1) C  2            23. BD*( 1) O  1- C  2      0.85   10.09   0.082
    2. CR ( 1) C  2            28. BD*( 1) C  3- C  4      0.81   10.44   0.082
    2. CR ( 1) C  2            58. RY ( 4) C  3            0.68   10.47   0.075
    2. CR ( 1) C  2            95. RY ( 1) H  8            0.61   10.18   0.070
    2. CR ( 1) C  2            99. RY ( 1) H  9            0.61   10.20   0.070
    3. CR ( 1) C  3            28. BD*( 1) C  3- C  4      0.77   10.38   0.080
    3. CR ( 1) C  3            31. BD*( 1) C  4- C  5      1.35   10.26   0.105
    3. CR ( 1) C  3            32. BD*( 1) C  4- H 11      0.86   10.19   0.084
    3. CR ( 1) C  3            46. RY ( 1) C  2            0.52   10.67   0.066
    3. CR ( 1) C  3            66. RY ( 3) C  4            1.03   10.83   0.094
    3. CR ( 1) C  3            67. RY ( 4) C  4            0.62   10.57   0.072
    3. CR ( 1) C  3            68. RY ( 5) C  4            0.55   11.78   0.072
    3. CR ( 1) C  3           103. RY ( 1) H 10            0.76   10.13   0.078
    4. CR ( 1) C  4            25. BD*( 1) C  2- C  3      1.10   10.17   0.094
    4. CR ( 1) C  4            28. BD*( 1) C  3- C  4      0.81   10.39   0.082
    4. CR ( 1) C  4            30. BD*( 1) C  3- H 10      0.84   10.21   0.082
    4. CR ( 1) C  4            33. BD*( 1) C  5- C  6      3.77   10.70   0.179
    4. CR ( 1) C  4            56. RY ( 2) C  3            0.98   10.43   0.090
    4. CR ( 1) C  4            57. RY ( 3) C  3            1.24   10.54   0.102
    4. CR ( 1) C  4            76. RY ( 4) C  5            1.15   10.65   0.099
    4. CR ( 1) C  4           107. RY ( 1) H 11            0.75   10.16   0.078
    5. CR ( 1) C  5            28. BD*( 1) C  3- C  4      1.02   10.36   0.092
    5. CR ( 1) C  5            32. BD*( 1) C  4- H 11      0.53   10.17   0.065
    5. CR ( 1) C  5            33. BD*( 1) C  5- C  6      2.14   10.67   0.135
    5. CR ( 1) C  5            36. BD*( 1) C  6- H 12      4.20   10.18   0.185
    5. CR ( 1) C  5            67. RY ( 4) C  4            0.67   10.55   0.075
    5. CR ( 1) C  5            83. RY ( 2) C  6            1.83   10.62   0.125
    6. CR ( 1) C  6            31. BD*( 1) C  4- C  5      6.73   10.24   0.234
    6. CR ( 1) C  6            33. BD*( 1) C  5- C  6      1.93   10.67   0.128
    6. CR ( 1) C  6            36. BD*( 1) C  6- H 12      0.98   10.18   0.089
    6. CR ( 1) C  6            74. RY ( 2) C  5            3.71   10.57   0.177
    6. CR ( 1) C  6           111. RY ( 1) H 12            0.56   10.95   0.070
    6. CR ( 1) C  6           113. RY ( 3) H 12            0.60   11.18   0.073
    7. LP ( 1) O  1            25. BD*( 1) C  2- C  3      0.69    0.89   0.022
    7. LP ( 1) O  1            26. BD*( 1) C  2- H  8      2.00    0.89   0.038
    7. LP ( 1) O  1            47. RY ( 2) C  2            0.73    1.48   0.029
    7. LP ( 1) O  1            93. RY ( 3) H  7            0.85    2.21   0.039
    8. LP ( 2) O  1            26. BD*( 1) C  2- H  8      3.86    0.63   0.044
    8. LP ( 2) O  1            27. BD*( 1) C  2- H  9      7.75    0.63   0.062
    8. LP ( 2) O  1            47. RY ( 2) C  2            0.69    1.21   0.026
    8. LP ( 2) O  1            48. RY ( 3) C  2            0.88    1.95   0.037
    8. LP ( 2) O  1            92. RY ( 2) H  7            2.07    1.84   0.055
[...]
                   0.00000   0.00000   0.00000   0.00000   0.00000   0.00000
                   1.89415   1.97325   1.97703   1.96151   1.98523   1.98078
                  --------  --------  --------  --------  --------  --------
  1 C                -0.7      -1.7      -0.0      -0.8      -0.0       0.0
  2 C                48.6      52.1       3.5      -1.6      -0.1      -0.3
  3 C                52.9      -2.1      47.3      49.9      -1.0       0.6
  4 C                -0.9      -0.6      51.0      -0.3      40.1      47.1
  5 C                -0.0      -0.1      -0.8      -0.1      62.5      52.5
  8 H                -0.0      -0.0       0.0       0.2       0.0      -0.0
  9 H                 0.0      52.5      -0.4      -0.0       0.0       0.1
 10 H                 0.1      -0.0      -0.6      52.8       0.0      -0.0
 11 H                -0.0      -0.0       0.0      -0.0      -1.5       0.0

                     18        19        20        21        22        23   
                   0.00000   0.00000   0.00000   0.00000   0.00000   0.00000
                   1.92445   1.99174   1.98158   1.95233   0.02225   0.00649
                  --------  --------  --------  --------  --------  --------
  0 O                -0.0      -0.0     103.8     101.0      33.9      30.1
  1 C                 0.0       0.0      -3.1      -0.8      64.2      -0.3
  2 C                -0.0      -0.0       0.1      -0.1       1.1      -0.2
  3 C                -0.6      -0.0       0.0      -0.0      -0.2       0.0
  4 C                49.2     -10.8      -0.0       0.0      -0.0      -0.0
  5 C                51.3      59.4      -0.0       0.0      -0.0      -0.0
  6 H                -0.0       0.0      -0.8      -0.0       0.5      70.4
  7 H                -0.0      -0.0       0.0      -0.0       0.3       0.0
  8 H                -0.0      -0.0      -0.0      -0.1       0.2      -0.0
 11 H                 0.0      51.4       0.0      -0.0       0.0      -0.0

                     24        25        26        27        28        29   
                   0.00000   0.00000   0.00000   0.00000   0.00000   0.00000
                   0.02275   0.03145   0.03341   0.01758   0.10073   0.02123
                  --------  --------  --------  --------  --------  --------
  0 O                -0.4      -0.2      -0.2      -0.1       0.0       0.0
  1 C                49.1      44.7      45.0       0.7      -0.7       0.3
  2 C                50.2      -0.1       0.3      49.0      52.6      43.7
  3 C                -0.6      -0.3       0.1      50.2      48.5       1.0
  4 C                 1.4      -0.0       0.0       0.6      -0.7       0.2
  5 C                 0.2      -0.0       0.0      -0.5      -0.0       0.0
  7 H                -0.3      55.8       0.2      -0.3       0.0       0.0
  8 H                -0.3       0.1      54.6       0.2      -0.0      -0.2
  9 H                 0.3       0.0      -0.2       0.1       0.1      55.3
 10 H                 0.2      -0.0       0.2       0.2       0.1      -0.3

                     30        31        32        33        34        35   
                   0.00000   0.00000   0.00000   0.00000   0.00000   0.00000
                   0.02440   0.02674   0.01747   0.02594   0.07715   0.00635
                  --------  --------  --------  --------  --------  --------
  1 C                 1.2       0.1       0.1       0.0       0.0      -0.0
  2 C                 0.2       0.9      -0.6      -0.6      -0.0      -0.0
  3 C                50.1      44.5       4.9       2.2      -0.3      -0.2
  4 C                45.9      -0.1      56.6      50.5      51.1      -1.5
  5 C                 2.5      -0.2      38.8      47.8      49.1      46.1
  8 H                 0.1       0.1       0.0      -0.0      -0.0       0.0
  9 H                 0.2      -0.3      -0.1       0.1       0.0      -0.0
 10 H                 0.2      54.9      -0.4      -0.1       0.0      -0.0
 11 H                -0.3       0.0       0.6       0.2       0.1      55.6

                     36        37        38        39        40        41   
                   0.00000   0.00000   0.00000   0.00000   0.00000   0.00000
                   0.00144   0.00134   0.00017   0.00005   0.00002   0.00001
                  --------  --------  --------  --------  --------  --------
  0 O               107.1     109.6     119.4     108.3     105.5     105.1
  1 C                -6.4      -7.9     -14.2      -1.9      -2.2      -1.0
  2 C                 0.5       0.4      -1.2      -0.6      -0.1       0.1
  3 C                -0.1      -0.2      -0.0      -0.1      -0.0      -0.0
  6 H                -0.8      -1.4      -3.7      -5.7      -3.1      -4.1
  7 H                -0.2      -0.2      -0.1      -0.0      -0.0      -0.0
  8 H                -0.1      -0.2      -0.1       0.1      -0.0      -0.0

                     42        43        44        45        46        47   
                   0.00000   0.00000   0.00000   0.00000   0.00000   0.00000
                   0.00000   0.00000   0.00000   0.00338   0.00295   0.00166
                  --------  --------  --------  --------  --------  --------
  0 O               102.4     104.2     102.4      -4.5     -12.3      -4.7
  1 C                -0.1      -1.3      -1.7     164.9     164.4     116.2
  2 C                -0.1      -0.1      -0.0     -42.0     -41.2      -4.3
  3 C                 0.0      -0.0      -0.0       1.6      -1.9      -0.3
  4 C                -0.0      -0.0      -0.0      -0.8      -0.4       0.0
  5 C                -0.0      -0.0      -0.0      -0.1      -0.1      -0.0
  6 H                -2.2      -2.5      -0.5      -0.1      -0.8      -0.9
  7 H                -0.0      -0.1      -0.1      -2.2      -3.9      -2.5
  8 H                -0.0      -0.1      -0.0     -15.4      -3.5      -3.6
  9 H                -0.0      -0.0      -0.0      -0.7      -0.2       0.0
 10 H                -0.0      -0.0      -0.0      -0.5      -0.0       0.0

                     48        49        50        51        52        53   
                   0.00000   0.00000   0.00000   0.00000   0.00000   0.00000
                   0.00120   0.00113   0.00014   0.00009   0.00003   0.00001
                  --------  --------  --------  --------  --------  --------
  0 O                -3.2       1.5      -1.8      -5.5      -7.0       0.1
  1 C               122.6     113.7     138.7     141.0     147.0     107.9
  2 C                -3.8      -2.7     -31.6     -15.4     -10.9      -0.9
  3 C                 0.2      -0.3       0.5       2.2       0.0       0.0
  4 C                -0.1       0.1      -0.9      -0.1      -0.2       0.0
  5 C                -0.0       0.0      -0.1      -0.0      -0.0      -0.0
  6 H                -0.0      -0.5      -1.5      -0.6      -1.1       0.0
  7 H               -13.7      -1.9      -1.7      -5.5     -21.4      -2.8
  8 H                -1.8      -9.8      -0.3     -15.5      -6.3      -4.3
  9 H                -0.2      -0.0      -0.6      -0.4      -0.2       0.0
 10 H                -0.0      -0.1      -0.6      -0.1      -0.0      -0.0

                     54        55        56        57        58        59   
                   0.00000   0.00000   0.00000   0.00000   0.00000   0.00000
                   0.00488   0.00374   0.00192   0.00114   0.00026   0.00016
                  --------  --------  --------  --------  --------  --------
  0 O                 0.0      -1.3      -0.0       0.3      -0.1      -0.0
  1 C                -8.0     -30.6     -11.7     -84.7      -6.2      -2.0
  2 C               178.8     166.4     189.9     255.1     120.0     107.6
  3 C               -36.2     -22.7     -76.0     -68.6     -11.3      -2.4
  4 C                 0.5      -4.2      -1.9      -0.4      -0.9       0.1
  5 C                 0.1      -0.2       0.3       0.1      -0.1      -0.2
  6 H                -0.0      -0.1      -0.0      -0.2      -0.0       0.0
  7 H                -0.0       0.3       0.2      -1.2       0.2      -0.1
  8 H                 0.1      -0.6       0.5       2.2       0.3      -0.1
  9 H               -34.9      -6.0      -1.0      -3.5      -1.9      -2.8
 10 H                -0.4      -1.0      -0.4       0.8       0.1      -0.1

                     60        61        62        63        64        65   
                   0.00000   0.00000   0.00000   0.00000   0.00000   0.00000
                   0.00009   0.00003   0.00000   0.00542   0.00147   0.00088
                  --------  --------  --------  --------  --------  --------
  0 O                -0.0      -0.1      -0.1      -0.1      -0.1      -0.0
  1 C                -1.4      -2.2      -0.8       0.9      -0.2      -1.4
  2 C               116.7     105.6     105.6     -40.3      -6.1     -45.2
  3 C                -6.1      -2.2      -1.8     192.1     130.4     202.9
  4 C                 1.4      -0.0       0.0     -21.6     -18.6     -40.3
  5 C                 0.0      -0.0      -0.0      -3.2      -2.4      -4.6
  7 H                -0.0      -0.0       0.0       0.0      -0.0       0.1
  8 H                 0.1      -0.0      -0.1      -1.1      -0.0      -1.4
  9 H               -10.6      -1.1      -2.8      -0.6      -0.1      -0.7
 10 H                -0.1       0.0      -0.0     -26.0      -2.9      -9.3

                     66        67        68        69        70        71   
                   0.00000   0.00000   0.00000   0.00000   0.00000   0.00000
                   0.00053   0.00027   0.00012   0.00008   0.00001   0.00000
                  --------  --------  --------  --------  --------  --------
  1 C                 0.6      -0.4       0.0       2.1       0.0      -0.0
  2 C               -97.0     -12.4      -7.5     -12.5      -4.3      -1.2
  3 C               312.0     121.9     131.3     130.5     117.6     104.7
  4 C               -99.0      -3.8     -20.7      -7.3     -10.1      -0.5
  5 C               -16.1       0.1      -2.5      -0.2      -1.1      -0.0
  8 H                -0.2       0.0      -0.0      -0.2      -0.0      -0.0
  9 H                 1.8       0.2       0.1      -0.1       0.0      -0.0
 10 H                -2.1      -5.7      -0.7     -12.4      -2.1      -2.9

                     72        73        74        75        76        77   
                   0.00000   0.00000   0.00000   0.00000   0.00000   0.00000
                   0.00443   0.00154   0.00137   0.00073   0.00007   0.00002
                  --------  --------  --------  --------  --------  --------
  1 C                -0.5      -0.2      -0.1      -1.4      -0.0      -0.0
  2 C                -1.6      -0.7      -0.2      -2.6       0.3       0.7
  3 C               -22.0      -7.3     -12.6    -156.5      -8.3      -7.7
  4 C               138.7     470.2     135.4     280.2     121.2     116.3
  5 C               -12.6    -354.9     -21.9     -16.5     -13.0      -9.3
  9 H                -1.8      -0.1      -0.1      -1.4       0.1      -0.2
 10 H                -0.1       0.3      -0.3      -2.3      -0.0       0.3
 11 H                -0.1      -7.4      -0.2       0.7      -0.2      -0.1

                     78        79        80        81        82        83   
                   0.00000   0.00000   0.00000   0.00000   0.00000   0.00000
                   0.00000   0.00000   0.00000   0.00070   0.00043   0.00014
                  --------  --------  --------  --------  --------  --------
  1 C                -0.1      -0.1      -0.0      -0.0      -0.3      -0.0
  2 C                -0.6       0.2      -0.0       0.0       0.5      -0.1
  3 C                -0.0      -7.9      -0.1      -1.7     -31.7      -0.8
  4 C               102.0     117.4     100.6     -26.0    -319.8     -11.3
  5 C                -1.2      -9.3      -0.4     128.7     458.7     118.1
 10 H                -0.0      -0.1      -0.0       0.0       0.4       0.0
 11 H                -0.0      -0.2       0.0      -1.0      -7.7      -5.9

                     84        85        86        87        88        89   
                   0.00000   0.00000   0.00000   0.00000   0.00000   0.00000
                   0.00007   0.00000   0.00000   0.00000   0.00000   0.00000
                  --------  --------  --------  --------  --------  --------
  3 C                 0.8      -0.2      -0.3      -0.0      -0.0      -0.0
  4 C               -31.8     -18.7      -5.8      -0.4      -6.0      -0.6
  5 C               159.5     144.2     109.8     100.4     108.9     100.8
 11 H               -28.5     -25.3      -3.7      -0.0      -2.8      -0.2

                     90        91        92        93        94        95   
                   0.00000   0.00000   0.00000   0.00000   0.00000   0.00000
                   0.00188   0.00155   0.00090   0.00002   0.00304   0.00021
                  --------  --------  --------  --------  --------  --------
  0 O                -4.7      -3.1      -2.3      -2.3       0.1      -0.3
  1 C                -3.9      -0.2      -0.8      -0.1     -33.8      -2.9
  2 C                -0.0      -0.0      -0.1       0.1      -1.0       0.0
  3 C                 0.0      -0.0      -0.0      -0.0       0.3      -0.1
  6 H               109.0     103.3     103.5     102.4      -0.2      -0.2
  7 H                -0.2       0.0      -0.2       0.0     135.4     104.0
  8 H                -0.1      -0.0      -0.2      -0.0      -0.6      -0.5
  9 H                -0.0      -0.0      -0.0      -0.0      -0.2      -0.0

                     96        97        98        99       100       101   
                   0.00000   0.00000   0.00000   0.00000   0.00000   0.00000
                   0.00017   0.00003   0.00320   0.00017   0.00014   0.00003
                  --------  --------  --------  --------  --------  --------
  0 O                -0.7      -0.4       0.1      -0.3      -0.4      -0.4
  1 C                -3.4      -7.7     -39.4      -3.1      -3.3      -7.4
  2 C                -0.2      -0.1       2.6       0.0      -0.4      -0.2
  3 C                -0.0      -0.0      -2.9      -0.0       0.0      -0.0
  6 H                -0.0      -0.0      -0.1      -0.1      -0.1      -0.0
  7 H               104.9     108.2      -0.6      -0.5      -0.4      -0.1
  8 H                -0.5      -0.0     143.3     104.1     104.6     108.2
 10 H                -0.0      -0.0      -2.8      -0.1      -0.0      -0.0

                    102       103       104       105       106       107   
                   0.00000   0.00000   0.00000   0.00000   0.00000   0.00000
                   0.00319   0.00018   0.00008   0.00006   0.00286   0.00020
                  --------  --------  --------  --------  --------  --------
  0 O                -0.1      -0.1      -0.1      -0.0      -0.0      -0.0
  1 C                -1.4      -0.1      -1.0       0.0      -1.3      -0.0
  2 C               -42.3      -3.1      -4.0      -8.5      -0.2      -0.1
  3 C                 1.1      -0.1      -0.2      -0.1     -41.8      -3.1
  4 C                -3.5      -0.0      -0.1      -0.1      -1.6      -0.1
  5 C                -0.0      -0.0      -0.0       0.0       0.4      -0.0
  7 H                -0.2      -0.0       0.0      -0.0      -0.0      -0.0
  8 H                 0.1      -0.0      -0.0      -0.0      -2.8      -0.0
  9 H               146.1     103.5     105.4     108.7       0.2      -0.0
 10 H                 0.2      -0.0      -0.0      -0.0     147.0     103.3

                    108       109       110       111       112       113   
                   0.00000   0.00000   0.00000   0.00000   0.00000   0.00000
                   0.00008   0.00005   0.00033   0.00030   0.00022   0.00006
                  --------  --------  --------  --------  --------  --------
  2 C                -0.8       0.1       0.0       0.0      -0.1      -0.0
  3 C                -5.3      -7.5      -0.0      -0.0      -0.2       0.2
  4 C                -0.5      -0.4      -3.3      -0.3      -3.6      -0.5
  5 C                -0.0      -0.1     -23.6      -5.0     -21.2     -19.1
  8 H                -0.0      -0.1       0.0      -0.0      -0.0      -0.0
 10 H               106.7     108.1      -0.0      -0.0       0.0      -0.0
 11 H                -0.0      -0.0     126.8     105.3     125.0     119.5


Storing NBOs: 0929.nbo
                                    *** NBOs were stored ***

                                *** returned from GENNBO program ***

-------
TIMINGS
-------

Total SCF time: 0 days 0 hours 0 min 3 sec 

Total time                  ....       3.935 sec
Sum of individual times     ....       4.285 sec  (108.9%)

Fock matrix formation       ....       2.605 sec  ( 66.2%)
  Coulomb formation         ....       1.537 sec  ( 59.0% of F)
  Split-RI-J                ....       1.531 sec  ( 58.8% of F)
  XC integration            ....       1.064 sec  ( 40.9% of F)
    Basis function eval.    ....       0.379 sec  ( 35.6% of XC)
    Density eval.           ....       0.191 sec  ( 18.0% of XC)
    XC-Functional eval.     ....       0.087 sec  (  8.1% of XC)
    XC-Potential eval.      ....       0.377 sec  ( 35.4% of XC)
Diagonalization             ....       0.015 sec  (  0.4%)
Density matrix formation    ....       0.002 sec  (  0.0%)
Population analysis         ....       0.895 sec  ( 22.7%)
Initial guess               ....       0.264 sec  (  6.7%)
Orbital Transformation      ....       0.000 sec  (  0.0%)
Orbital Orthonormalization  ....       0.000 sec  (  0.0%)
DIIS solution               ....       0.004 sec  (  0.1%)
SOSCF solution              ....       0.008 sec  (  0.2%)
Grid generation             ....       0.492 sec  ( 12.5%)
           ************************************************************
           *              Shut down parallel processing               *
           ************************************************************

-------------------------   --------------------
FINAL SINGLE POINT ENERGY      -268.721805923545
-------------------------   --------------------


                            ***************************************
                            *     ORCA property calculations      *
                            ***************************************

                                    ---------------------
                                    Active property flags
                                    ---------------------
   (+) Dipole Moment


------------------------------------------------------------------------------
                       ORCA ELECTRIC PROPERTIES CALCULATION
------------------------------------------------------------------------------

Dipole Moment Calculation                       ... on
Quadrupole Moment Calculation                   ... off
Polarizability Calculation                      ... off
GBWName                                         ... 0929.gbw
Electron density file                           ... 0929.scfp.tmp

-------------
DIPOLE MOMENT
-------------
                                X             Y             Z
Electronic contribution:      1.19985       0.00087       2.21991
Nuclear contribution   :     -1.45318       0.22829      -2.89922
                        -----------------------------------------
Total Dipole Moment    :     -0.25332       0.22916      -0.67931
                        -----------------------------------------
Magnitude (a.u.)       :      0.76036
Magnitude (Debye)      :      1.93269


Timings for individual modules:

Sum of individual times         ...        5.008 sec (=   0.083 min)
GTO integral calculation        ...        0.472 sec (=   0.008 min)   9.4 %
SCF iterations                  ...        4.536 sec (=   0.076 min)  90.6 %
                             ****ORCA TERMINATED NORMALLY****
TOTAL RUN TIME: 0 days 0 hours 0 minutes 5 seconds 416 msec
