
                                 *****************
                                 * O   R   C   A *
                                 *****************

           --- An Ab Initio, DFT and Semiempirical electronic structure package ---

                  #######################################################
                  #                        -***-                        #
                  #  Department of molecular theory and spectroscopy    #
                  #              Directorship: Frank Neese              #
                  # Max Planck Institute for Chemical Energy Conversion #
                  #                  D-45470 Muelheim/Ruhr              #
                  #                       Germany                       #
                  #                                                     #
                  #                  All rights reserved                #
                  #                        -***-                        #
                  #######################################################


                         Program Version 3.0.3 - RELEASE   -


 With contributions from (in alphabetic order):
   Ute Becker             : Parallelization
   Dmytro Bykov           : SCF Hessian
   Dmitry Ganyushin       : Spin-Orbit,Spin-Spin,Magnetic field MRCI
   Andreas Hansen         : Spin unrestricted coupled pair/coupled cluster methods
   Dimitrios Liakos       : Extrapolation schemes; parallel MDCI
   Robert Izsak           : Overlap fitted RIJCOSX, COSX-SCS-MP3
   Christian Kollmar      : KDIIS, OOCD, Brueckner-CCSD(T), CCSD density
   Simone Kossmann        : Meta GGA functionals, TD-DFT gradient, OOMP2, MP2 Hessian
   Taras Petrenko         : DFT Hessian,TD-DFT gradient, ASA and ECA modules, normal mode analysis, Resonance Raman, ABS, FL, XAS/XES, NRVS
   Christoph Reimann      : Effective Core Potentials
   Michael Roemelt        : Restricted open shell CIS
   Christoph Riplinger    : Improved optimizer, TS searches, QM/MM, DLPNO-CCSD
   Barbara Sandhoefer     : DKH picture change effects
   Igor Schapiro          : Molecular dynamics
   Kantharuban Sivalingam : CASSCF convergence, NEVPT2
   Boris Wezisla          : Elementary symmetry handling
   Frank Wennmohs         : Technical directorship


 We gratefully acknowledge several colleagues who have allowed us to
 interface, adapt or use parts of their codes:
   Stefan Grimme, W. Hujo, H. Kruse, T. Risthaus : VdW corrections, initial TS optimization,
                                                   DFT functionals, gCP
   Ed Valeev                                     : LibInt (2-el integral package), F12 methods
   Garnet Chan, S. Sharma, R. Olivares           : DMRG
   Ulf Ekstrom                                   : XCFun DFT Library
   Mihaly Kallay                                 : mrcc  (arbitrary order and MRCC methods)
   Andreas Klamt, Michael Diedenhofen            : otool_cosmo (COSMO solvation model)
   Frank Weinhold                                : gennbo (NPA and NBO analysis)
   Christopher J. Cramer and Donald G. Truhlar   : smd solvation model


 Your calculation uses the libint2 library for the computation of 2-el integrals
 For citations please refer to: http://libint.valeyev.net

 This ORCA versions uses:
   CBLAS   interface :  Fast vector & matrix operations
   LAPACKE interface :  Fast linear algebra routines
   SCALAPACK package :  Parallel linear algebra routines


Your calculation utilizes the basis: Ahlrichs-VDZ
Cite in your paper:
H - Kr: A. Schaefer, H. Horn and R. Ahlrichs, J. Chem. Phys. 97, 2571 (1992).

Your calculation utilizes the basis: Ahlrichs SVPalls1+f
Cite in your paper:
Rb - Xe: A. Schaefer, C. Huber and R. Ahlrichs, J. Chem. Phys. 100, 5829 (1994).

================================================================================
                                        WARNINGS
                       Please study these warnings very carefully!
================================================================================
Now building the actual basis set


INFO   : the flag for use of LIBINT has been found!

================================================================================
                                       INPUT FILE
================================================================================
NAME = 1123.inp
|  1> ! RI PBE def2-SVP def2-SVP/J NBO PAL2
|  2> % maxcore 2000
|  3> % output
|  4>     # printlevel mini
|  5>     print[ P_Basis ] 0
|  6>     print[ P_SCFInfo ] 1
|  7>     print[ P_SCFIterInfo ] 1
|  8>     print[ P_OrbEn ] 0
|  9>     print[ P_Cartesian ] 0
| 10> end
| 11> *xyz 0 1
| 12>  O        1.2181940000    -0.1417040000     0.7108440000 
| 13>  C        2.3381790000    -0.0783590000     0.2850790000 
| 14>  C        3.1642410000     1.1788210000     0.0707740000 
| 15>  C        4.3458800000     0.6791630000    -0.7581850000 
| 16>  N        4.5385220000    -0.7290290000    -0.3976460000 
| 17>  C        3.2041220000    -1.2539810000    -0.1561060000 
| 18>  H        3.4905810000     1.5337410000     1.0551070000 
| 19>  H        2.5610570000     1.9677340000    -0.3802440000 
| 20>  H        5.2663020000     1.2407010000    -0.5979100000 
| 21>  H        4.1098000000     0.7366570000    -1.8261990000 
| 22>  H        5.0780720000    -0.7812970000     0.4575620000 
| 23>  H        3.1883210000    -2.0587700000     0.5800080000 
| 24>  H        2.7722400000    -1.6552780000    -1.0828840000 
| 25> *
| 26> 
| 27>                          ****END OF INPUT****
================================================================================

                       ****************************
                       * Single Point Calculation *
                       ****************************

--------------------------------
INTERNAL COORDINATES (ANGSTROEM)
--------------------------------
 O      0   0   0   0.000000     0.000     0.000
 C      1   0   0   1.199856     0.000     0.000
 C      2   1   0   1.519476   126.955     0.000
 C      3   2   1   1.527449   103.089   192.025
 N      4   3   2   1.466323   106.400   331.579
 C      5   4   3   1.454146   105.484    34.997
 H      3   2   1   1.096074   107.645    74.314
 H      3   2   1   1.090702   110.862   316.918
 H      4   3   2   1.090041   113.885   209.798
 H      4   3   2   1.095305   110.199    89.097
 H      5   4   3   1.012535   109.102   277.713
 H      6   5   4   1.090779   113.063   209.985
 H      6   5   4   1.098398   110.644    89.849

---------------------------
INTERNAL COORDINATES (A.U.)
---------------------------
 O      0   0   0   0.000000     0.000     0.000
 C      1   0   0   2.267400     0.000     0.000
 C      2   1   0   2.871393   126.955     0.000
 C      3   2   1   2.886461   103.089   192.025
 N      4   3   2   2.770949   106.400   331.579
 C      5   4   3   2.747937   105.484    34.997
 H      3   2   1   2.071279   107.645    74.314
 H      3   2   1   2.061129   110.862   316.918
 H      4   3   2   2.059879   113.885   209.798
 H      4   3   2   2.069827   110.199    89.097
 H      5   4   3   1.913414   109.102   277.713
 H      6   5   4   2.061274   113.063   209.985
 H      6   5   4   2.075672   110.644    89.849



           ************************************************************
           *        Program running with 2 parallel MPI-processes     *
           *              working on a common directory               *
           ************************************************************
------------------------------------------------------------------------------
                           ORCA GTO INTEGRAL CALCULATION
                           -- RI-GTO INTEGRALS CHOSEN --
------------------------------------------------------------------------------

                         BASIS SET STATISTICS AND STARTUP INFO

Gaussian basis set:
 # of primitive gaussian shells          ...  107
 # of primitive gaussian functions       ...  193
 # of contracted shells                  ...   57
 # of contracted basis functions         ...  119
 Highest angular momentum                ...    2
 Maximum contraction depth               ...    5
Auxiliary gaussian basis set:
 # of primitive gaussian shells          ...  200
 # of primitive gaussian functions       ...  532
 # of contracted shells                  ...  125
 # of contracted aux-basis functions     ...  371
 Highest angular momentum                ...    4
 Maximum contraction depth               ...    7
Ratio of auxiliary to basis functions    ...  3.12
Integral package used                  ... LIBINT
 One Electron integrals                  ... done
 Ordering auxiliary basis shells         ... done
 Integral threshhold             Thresh  ...  1.000e-10
 Primitive cut-off               TCut    ...  1.000e-11
 Pre-screening matrix                    ... done
 Shell pair data                         ... 
 Ordering of the shell pairs             ... done (   0.000 sec) 1629 of 1653 pairs
 Determination of significant pairs      ... done (   0.000 sec)
 Creation of shell pair data             ... done (   0.000 sec)
 Storage of shell pair data              ... done (   0.000 sec)
 Shell pair data done in (   0.001 sec)
 Computing two index integrals           ... done
 Cholesky decomposition of the V-matrix  ... done


Timings:
 Total evaluation time                   ...   0.145 sec (  0.002 min)
 One electron matrix time                ...   0.013 sec (  0.000 min) =  8.9%
 Schwartz matrix evaluation time         ...   0.073 sec (  0.001 min) = 50.3%
 Two index repulsion integral time       ...   0.003 sec (  0.000 min) =  1.8%
 Cholesky decomposition of V             ...   0.002 sec (  0.000 min) =  1.5%
 Three index repulsion integral time     ...   0.000 sec (  0.000 min) =  0.0%

           ************************************************************
           *              Shut down parallel processing               *
           ************************************************************


           ************************************************************
           *        Program running with 2 parallel MPI-processes     *
           *              working on a common directory               *
           ************************************************************
-------------------------------------------------------------------------------
                                 ORCA SCF
-------------------------------------------------------------------------------

------------
SCF SETTINGS
------------
Hamiltonian:
 Density Functional     Method          .... DFT(GTOs)
 Exchange Functional    Exchange        .... PBE
   PBE kappa parameter  XKappa          ....  0.804000
 Correlation Functional Correlation     .... PBE
 LDA part of GGA corr.  LDAOpt          .... PW91-LDA
 Gradients option       PostSCFGGA      .... off
   NL short-range parameter             ....  6.400000
 RI-approximation to the Coulomb term is turned on
   Number of auxiliary basis functions  .... 371


General Settings:
 Integral files         IntName         .... 1123
 Hartree-Fock type      HFTyp           .... RHF
 Total Charge           Charge          ....    0
 Multiplicity           Mult            ....    1
 Number of Electrons    NEL             ....   46
 Basis Dimension        Dim             ....  119
 Nuclear Repulsion      ENuc            ....    239.0184372190 Eh

Convergence Acceleration:
 DIIS                   CNVDIIS         .... on
   Start iteration      DIISMaxIt       ....    12
   Startup error        DIISStart       ....  0.200000
   # of expansion vecs  DIISMaxEq       ....     5
   Bias factor          DIISBfac        ....   1.050
   Max. coefficient     DIISMaxC        ....  10.000
 Newton-Raphson         CNVNR           .... off
 SOSCF                  CNVSOSCF        .... on
   Start iteration      SOSCFMaxIt      ....   150
   Startup grad/error   SOSCFStart      ....  0.003300
 Level Shifting         CNVShift        .... on
   Level shift para.    LevelShift      ....    0.2500
   Turn off err/grad.   ShiftErr        ....    0.0010
 Zerner damping         CNVZerner       .... off
 Static damping         CNVDamp         .... on
   Fraction old density DampFac         ....    0.7000
   Max. Damping (<1)    DampMax         ....    0.9800
   Min. Damping (>=0)   DampMin         ....    0.0000
   Turn off err/grad.   DampErr         ....    0.1000
 Fernandez-Rico         CNVRico         .... off

SCF Procedure:
 Maximum # iterations   MaxIter         ....   125
 SCF integral mode      SCFMode         .... Direct
   Integral package                     .... LIBINT
 Reset frequeny         DirectResetFreq ....    20
 Integral Threshold     Thresh          ....  1.000e-10 Eh
 Primitive CutOff       TCut            ....  1.000e-11 Eh

Convergence Tolerance:
 Convergence Check Mode ConvCheckMode   .... Total+1el-Energy
 Energy Change          TolE            ....  1.000e-06 Eh
 1-El. energy change                    ....  1.000e-03 Eh
 Orbital Gradient       TolG            ....  5.000e-05
 Orbital Rotation angle TolX            ....  5.000e-05
 DIIS Error             TolErr          ....  1.000e-06


Diagonalization of the overlap matrix:
Smallest eigenvalue                        ... 1.089e-03
Time for diagonalization                   ...    0.008 sec
Threshold for overlap eigenvalues          ... 1.000e-08
Number of eigenvalues below threshold      ... 0
Time for construction of square roots      ...    0.003 sec
Total time needed                          ...    0.011 sec

-------------------
DFT GRID GENERATION
-------------------

General Integration Accuracy     IntAcc      ...  4.340
Radial Grid Type                 RadialGrid  ... Gauss-Chebyshev
Angular Grid (max. acc.)         AngularGrid ... Lebedev-110
Angular grid pruning method      GridPruning ... 3 (G Style)
Weight generation scheme         WeightScheme... Becke
Basis function cutoff            BFCut       ...    1.0000e-10
Integration weight cutoff        WCut        ...    1.0000e-14
Grids for H and He will be reduced by one unit

# of grid points (after initial pruning)     ...  15600 (   0.0 sec)
# of grid points (after weights+screening)   ...  14548 (   0.0 sec)
nearest neighbour list constructed           ...    0.0 sec
Grid point re-assignment to atoms done       ...    0.0 sec
Grid point division into batches done        ...    0.0 sec
Reduced shell lists constructed in    0.1 sec

Total number of grid points                  ...    14548
Total number of batches                      ...      235
Average number of points per batch           ...       61
Average number of grid points per atom       ...     1119
Average number of shells per batch           ...    47.91 (84.05%)
Average number of basis functions per batch  ...   100.68 (84.61%)
Average number of large shells per batch     ...    40.32 (84.16%)
Average number of large basis fcns per batch ...    83.39 (82.83%)
Maximum spatial batch extension              ...  17.01, 25.60, 19.91 au
Average spatial batch extension              ...   1.37,  1.51,  1.47 au

Time for grid setup =    0.115 sec

------------------------------
INITIAL GUESS: MODEL POTENTIAL
------------------------------
Loading Hartree-Fock densities                     ... done
Calculating cut-offs                               ... done
Setting up the integral package                    ... done
Initializing the effective Hamiltonian             ... done
Starting the Coulomb interaction                   ... done (   0.0 sec)
Reading the grid                                   ... done
Mapping shells                                     ... done
Starting the XC term evaluation                    ... done (   0.1 sec)
  promolecular density results
     # of electrons  =     46.000313941
     EX              =    -37.220618798
     EC              =     -1.529811306
     EX+EC           =    -38.750430104
Transforming the Hamiltonian                       ... done (   0.0 sec)
Diagonalizing the Hamiltonian                      ... done (   0.0 sec)
Back transforming the eigenvectors                 ... done (   0.0 sec)
Now organizing SCF variables                       ... done
                      ------------------
                      INITIAL GUESS DONE (   0.3 sec)
                      ------------------
--------------
SCF ITERATIONS
--------------
ITER       Energy         Delta-E        Max-DP      RMS-DP      [F,P]     Damp
               ***  Starting incremental Fock matrix formation  ***
  0   -285.8665835388   0.000000000000 0.14619328  0.00423043  0.2251304 0.7000
  1   -285.9522956968  -0.085712158053 0.09754896  0.00276558  0.0771687 0.7000
                               ***Turning on DIIS***
  2   -285.9781549136  -0.025859216766 0.08432004  0.00365734  0.0250166 0.0000
  3   -286.0254436691  -0.047288755509 0.07501805  0.00195520  0.0454947 0.0000
  4   -286.0347741502  -0.009330481053 0.01652167  0.00054758  0.0215587 0.0000
                      *** Initiating the SOSCF procedure ***
                           *** Shutting down DIIS ***
                      *** Re-Reading the Fockian *** 
                      *** Removing any level shift *** 
ITER      Energy       Delta-E        Grad      Rot      Max-DP    RMS-DP
  5   -286.03618670  -0.0014125465  0.001025  0.001025  0.004096  0.000179
               *** Restarting incremental Fock matrix formation ***
  6   -286.03624404  -0.0000573391  0.000561  0.002253  0.003804  0.000153
  7   -286.03621892   0.0000251137  0.002161  0.002357  0.003075  0.000098
  8   -286.03625183  -0.0000329048  0.000104  0.000550  0.000600  0.000035
  9   -286.03625141   0.0000004218  0.000147  0.000178  0.000399  0.000016
 10   -286.03625232  -0.0000009167  0.000021  0.000077  0.000136  0.000007
                 **** Energy Check signals convergence ****
              ***Rediagonalizing the Fockian in SOSCF/NRSCF***

               *****************************************************
               *                     SUCCESS                       *
               *           SCF CONVERGED AFTER  11 CYCLES          *
               *****************************************************

Setting up the final grid:

General Integration Accuracy     IntAcc      ...  4.670
Radial Grid Type                 RadialGrid  ... Gauss-Chebyshev
Angular Grid (max. acc.)         AngularGrid ... Lebedev-302
Angular grid pruning method      GridPruning ... 3 (G Style)
Weight generation scheme         WeightScheme... Becke
Basis function cutoff            BFCut       ...    1.0000e-10
Integration weight cutoff        WCut        ...    1.0000e-14
Grids for H and He will be reduced by one unit

# of grid points (after initial pruning)     ...  61030 (   0.0 sec)
# of grid points (after weights+screening)   ...  56205 (   0.1 sec)
nearest neighbour list constructed           ...    0.0 sec
Grid point re-assignment to atoms done       ...    0.0 sec
Grid point division into batches done        ...    0.2 sec
Reduced shell lists constructed in    0.3 sec

Total number of grid points                  ...    56205
Total number of batches                      ...      887
Average number of points per batch           ...       63
Average number of grid points per atom       ...     4323
Average number of shells per batch           ...    45.26 (79.40%)
Average number of basis functions per batch  ...    94.69 (79.57%)
Average number of large shells per batch     ...    37.48 (82.82%)
Average number of large basis fcns per batch ...    76.96 (81.28%)
Maximum spatial batch extension              ...  17.37, 23.00, 19.53 au
Average spatial batch extension              ...   0.99,  1.01,  0.97 au

Final grid set up in    0.4 sec
Final integration                            ... done (   0.3 sec)
Change in XC energy                          ...     0.000364169
Integrated number of electrons               ...    45.999996914
Previous integrated no of electrons          ...    46.001585760

----------------
TOTAL SCF ENERGY
----------------

Total Energy       :         -286.03588814 Eh           -7783.43222 eV

Components:
Nuclear Repulsion  :          239.01843722 Eh            6504.02233 eV
Electronic Energy  :         -525.05432536 Eh          -14287.45455 eV

One Electron Energy:         -861.14284105 Eh          -23432.88801 eV
Two Electron Energy:          336.08851568 Eh            9145.43346 eV

Virial components:
Potential Energy   :         -569.59444387 Eh          -15499.45279 eV
Kinetic Energy     :          283.55855572 Eh            7716.02058 eV
Virial Ratio       :            2.00873658


DFT components:
N(Alpha)           :       22.999998457136 electrons
N(Beta)            :       22.999998457136 electrons
N(Total)           :       45.999996914272 electrons
E(X)               :      -37.933383939858 Eh       
E(C)               :       -1.542795011433 Eh       
E(XC)              :      -39.476178951291 Eh       

---------------
SCF CONVERGENCE
---------------

  Last Energy change         ...    7.7222e-09  Tolerance :   1.0000e-06
  Last MAX-Density change    ...    5.3778e-05  Tolerance :   1.0000e-05
  Last RMS-Density change    ...    3.1020e-06  Tolerance :   1.0000e-06
  Last Orbital Gradient      ...    1.7794e-05  Tolerance :   5.0000e-05
  Last Orbital Rotation      ...    2.4238e-05  Tolerance :   5.0000e-05

             **** THE GBW FILE WAS UPDATED (1123.gbw) ****
             **** DENSITY FILE WAS UPDATED (1123.scfp.tmp) ****
             **** ENERGY FILE WAS UPDATED (1123.en.tmp) ****

                    ********************************
                    * MULLIKEN POPULATION ANALYSIS *
                    ********************************

-----------------------
MULLIKEN ATOMIC CHARGES
-----------------------
   0 O :   -0.145966
   1 C :   -0.115429
   2 C :    0.016686
   3 C :    0.055808
   4 N :   -0.256536
   5 C :    0.131384
   6 H :    0.043525
   7 H :    0.038574
   8 H :    0.020246
   9 H :    0.028243
  10 H :    0.101815
  11 H :    0.042493
  12 H :    0.039155
Sum of atomic charges:   -0.0000000

--------------------------------
MULLIKEN REDUCED ORBITAL CHARGES
--------------------------------
  0 O s       :     3.732200  s :     3.732200
      pz      :     1.300850  p :     4.395535
      px      :     1.331975
      py      :     1.762710
      dz2     :     0.002671  d :     0.018230
      dxz     :     0.005836
      dyz     :     0.000584
      dx2y2   :     0.005299
      dxy     :     0.003841
  1 C s       :     3.214955  s :     3.214955
      pz      :     0.829388  p :     2.807352
      px      :     0.938257
      py      :     1.039707
      dz2     :     0.008343  d :     0.093123
      dxz     :     0.016749
      dyz     :     0.009942
      dx2y2   :     0.019031
      dxy     :     0.039058
  2 C s       :     2.964556  s :     2.964556
      pz      :     1.002568  p :     2.990038
      px      :     0.976363
      py      :     1.011107
      dz2     :     0.006966  d :     0.028721
      dxz     :     0.004950
      dyz     :     0.004056
      dx2y2   :     0.004505
      dxy     :     0.008244
  3 C s       :     2.998681  s :     2.998681
      pz      :     1.037721  p :     2.897655
      px      :     1.005835
      py      :     0.854099
      dz2     :     0.011702  d :     0.047856
      dxz     :     0.005241
      dyz     :     0.009389
      dx2y2   :     0.010467
      dxy     :     0.011057
  4 N s       :     3.473938  s :     3.473938
      pz      :     1.350141  p :     3.758441
      px      :     1.204069
      py      :     1.204231
      dz2     :     0.005668  d :     0.024158
      dxz     :     0.004885
      dyz     :     0.002603
      dx2y2   :     0.006619
      dxy     :     0.004383
  5 C s       :     2.939558  s :     2.939558
      pz      :     1.042347  p :     2.884593
      px      :     0.856493
      py      :     0.985754
      dz2     :     0.005189  d :     0.044464
      dxz     :     0.010599
      dyz     :     0.006616
      dx2y2   :     0.009733
      dxy     :     0.012328
  6 H s       :     0.932570  s :     0.932570
      pz      :     0.011733  p :     0.023905
      px      :     0.005928
      py      :     0.006244
  7 H s       :     0.938342  s :     0.938342
      pz      :     0.006370  p :     0.023083
      px      :     0.007417
      py      :     0.009296
  8 H s       :     0.958014  s :     0.958014
      pz      :     0.004920  p :     0.021740
      px      :     0.010947
      py      :     0.005872
  9 H s       :     0.950376  s :     0.950376
      pz      :     0.013089  p :     0.021380
      px      :     0.005105
      py      :     0.003187
 10 H s       :     0.853128  s :     0.853128
      pz      :     0.019610  p :     0.045056
      px      :     0.015178
      py      :     0.010269
 11 H s       :     0.935116  s :     0.935116
      pz      :     0.009483  p :     0.022391
      px      :     0.003363
      py      :     0.009544
 12 H s       :     0.938386  s :     0.938386
      pz      :     0.011350  p :     0.022459
      px      :     0.004703
      py      :     0.006406


                     *******************************
                     * LOEWDIN POPULATION ANALYSIS *
                     *******************************

----------------------
LOEWDIN ATOMIC CHARGES
----------------------
   0 O :   -0.113757
   1 C :    0.043213
   2 C :   -0.088045
   3 C :    0.011159
   4 N :   -0.099972
   5 C :   -0.023440
   6 H :    0.047763
   7 H :    0.041840
   8 H :    0.024316
   9 H :    0.022512
  10 H :    0.054606
  11 H :    0.039101
  12 H :    0.040705

-------------------------------
LOEWDIN REDUCED ORBITAL CHARGES
-------------------------------
  0 O s       :     3.540898  s :     3.540898
      pz      :     1.320199  p :     4.540798
      px      :     1.452728
      py      :     1.767871
      dz2     :     0.004031  d :     0.032061
      dxz     :     0.009644
      dyz     :     0.000993
      dx2y2   :     0.010652
      dxy     :     0.006742
  1 C s       :     2.895843  s :     2.895843
      pz      :     0.806539  p :     2.840263
      px      :     1.000564
      py      :     1.033160
      dz2     :     0.017398  d :     0.220681
      dxz     :     0.035682
      dyz     :     0.021319
      dx2y2   :     0.045328
      dxy     :     0.100954
  2 C s       :     2.857323  s :     2.857323
      pz      :     1.054835  p :     3.149717
      px      :     1.045225
      py      :     1.049657
      dz2     :     0.017009  d :     0.081005
      dxz     :     0.015040
      dyz     :     0.011831
      dx2y2   :     0.011281
      dxy     :     0.025844
  3 C s       :     2.840447  s :     2.840447
      pz      :     1.059299  p :     3.033530
      px      :     1.043524
      py      :     0.930707
      dz2     :     0.029875  d :     0.114864
      dxz     :     0.013762
      dyz     :     0.019224
      dx2y2   :     0.026353
      dxy     :     0.025650
  4 N s       :     3.144549  s :     3.144549
      pz      :     1.409903  p :     3.901966
      px      :     1.242139
      py      :     1.249924
      dz2     :     0.011294  d :     0.053457
      dxz     :     0.011334
      dyz     :     0.004512
      dx2y2   :     0.016844
      dxy     :     0.009473
  5 C s       :     2.850499  s :     2.850499
      pz      :     1.077678  p :     3.061905
      px      :     0.942179
      py      :     1.042049
      dz2     :     0.013196  d :     0.111036
      dxz     :     0.023466
      dyz     :     0.019382
      dx2y2   :     0.022009
      dxy     :     0.032982
  6 H s       :     0.881650  s :     0.881650
      pz      :     0.035824  p :     0.070587
      px      :     0.016605
      py      :     0.018157
  7 H s       :     0.887490  s :     0.887490
      pz      :     0.017488  p :     0.070670
      px      :     0.023426
      py      :     0.029756
  8 H s       :     0.909111  s :     0.909111
      pz      :     0.014109  p :     0.066573
      px      :     0.033359
      py      :     0.019105
  9 H s       :     0.911637  s :     0.911637
      pz      :     0.040778  p :     0.065851
      px      :     0.014371
      py      :     0.010701
 10 H s       :     0.818328  s :     0.818328
      pz      :     0.061084  p :     0.127066
      px      :     0.039377
      py      :     0.026605
 11 H s       :     0.891918  s :     0.891918
      pz      :     0.026435  p :     0.068981
      px      :     0.011260
      py      :     0.031286
 12 H s       :     0.891142  s :     0.891142
      pz      :     0.033841  p :     0.068153
      px      :     0.015354
      py      :     0.018957


                      *****************************
                      * MAYER POPULATION ANALYSIS *
                      *****************************

  NA   - Mulliken gross atomic population
  ZA   - Total nuclear charge
  QA   - Mulliken gross atomic charge
  VA   - Mayer's total valence
  BVA  - Mayer's bonded valence
  FA   - Mayer's free valence

  ATOM       NA         ZA         QA         VA         BVA        FA
  0 O      8.1460     8.0000    -0.1460     2.3368     2.3368     0.0000
  1 C      6.1154     6.0000    -0.1154     4.3044     4.3044    -0.0000
  2 C      5.9833     6.0000     0.0167     3.8527     3.8527     0.0000
  3 C      5.9442     6.0000     0.0558     4.0768     4.0768    -0.0000
  4 N      7.2565     7.0000    -0.2565     3.1704     3.1704     0.0000
  5 C      5.8686     6.0000     0.1314     3.8240     3.8240    -0.0000
  6 H      0.9565     1.0000     0.0435     0.9948     0.9948     0.0000
  7 H      0.9614     1.0000     0.0386     1.0024     1.0024    -0.0000
  8 H      0.9798     1.0000     0.0202     0.9797     0.9797     0.0000
  9 H      0.9718     1.0000     0.0282     0.9724     0.9724    -0.0000
 10 H      0.8982     1.0000     0.1018     0.9905     0.9905     0.0000
 11 H      0.9575     1.0000     0.0425     1.0013     1.0013    -0.0000
 12 H      0.9608     1.0000     0.0392     0.9887     0.9887    -0.0000

  Mayer bond orders larger than 0.1
B(  0-O ,  1-C ) :   2.2137 B(  1-C ,  2-C ) :   0.9877 B(  1-C ,  5-C ) :   0.9383 
B(  2-C ,  3-C ) :   1.0589 B(  2-C ,  6-H ) :   0.9022 B(  2-C ,  7-H ) :   0.9169 
B(  3-C ,  4-N ) :   1.0718 B(  3-C ,  8-H ) :   0.9436 B(  3-C ,  9-H ) :   0.9360 
B(  4-N ,  5-C ) :   1.0644 B(  4-N , 10-H ) :   0.9510 B(  5-C , 11-H ) :   0.9337 
B(  5-C , 12-H ) :   0.8970 


 *********************************** NBO 6.0 ***********************************
             N A T U R A L   A T O M I C   O R B I T A L   A N D
          N A T U R A L   B O N D   O R B I T A L   A N A L Y S I S
 ***************************** Kiya KiyaLu (100703) ****************************
  (c) Copyright 1996-2015 Board of Regents of the University of Wisconsin System
      on behalf of the Theoretical Chemistry Institute.  All rights reserved.

          Cite this program as:

          NBO 6.0.  E. D. Glendening, J. K. Badenhoop, A. E. Reed,
          J. E. Carpenter, J. A. Bohmann, C. M. Morales, C. R. Landis,
          and F. Weinhold (Theoretical Chemistry Institute, University
          of Wisconsin, Madison, WI, 2013); http://nbo6.chem.wisc.edu/

       /NPA    / : Natural Population Analysis
       /NBO    / : Natural Bond Orbital Analysis
       /AONBO  / : Write the AO to NBO transformation to lfn77
       /FILE   / : Set to 1123

 Filename set to 1123

 Job title:  *** NBO job generated by orca_scf

 Warning: MOs are non-orthogonal; program will continue

 Warning: -2659.50026 electrons reside outside the linearly independent MO space


 NATURAL POPULATIONS:  Natural atomic orbital occupancies

  NAO Atom No lang   Type(AO)    Occupancy      Energy
 -------------------------------------------------------
   1    O  1  s      Cor( 1s)     1.99970     -18.49198
   2    O  1  s      Val( 2s)     1.67726      -0.79627
   3    O  1  s      Ryd( 3s)     0.00142       1.45649
   4    O  1  px     Val( 2p)     1.59275      -0.27989
   5    O  1  px     Ryd( 3p)     0.00056       0.99616
   6    O  1  py     Val( 2p)     1.85193      -0.20835
   7    O  1  py     Ryd( 3p)     0.00348       1.15284
   8    O  1  pz     Val( 2p)     1.37748      -0.23677
   9    O  1  pz     Ryd( 3p)     0.00048       1.02722
  10    O  1  dxy    Ryd( 3d)     0.00195       2.76232
  11    O  1  dxz    Ryd( 3d)     0.00233       2.87364
  12    O  1  dyz    Ryd( 3d)     0.00029       2.57725
  13    O  1  dx2y2  Ryd( 3d)     0.00215       2.97844
  14    O  1  dz2    Ryd( 3d)     0.00107       2.67657

  15    C  2  s      Cor( 1s)     1.99921      -9.86186
  16    C  2  s      Val( 2s)     0.83707      -0.15010
  17    C  2  s      Ryd( 3s)     0.00606       0.54275
  18    C  2  px     Val( 2p)     0.79983      -0.01465
  19    C  2  px     Ryd( 3p)     0.01973       0.59838
  20    C  2  py     Val( 2p)     1.00844      -0.06133
  21    C  2  py     Ryd( 3p)     0.00386       0.66386
  22    C  2  pz     Val( 2p)     0.76078      -0.11530
  23    C  2  pz     Ryd( 3p)     0.00454       0.52934
  24    C  2  dxy    Ryd( 3d)     0.00367       2.27961
  25    C  2  dxz    Ryd( 3d)     0.00179       2.09394
  26    C  2  dyz    Ryd( 3d)     0.00099       1.88987
  27    C  2  dx2y2  Ryd( 3d)     0.00159       2.22033
  28    C  2  dz2    Ryd( 3d)     0.00099       2.01262

  29    C  3  s      Cor( 1s)     1.99902      -9.78145
  30    C  3  s      Val( 2s)     1.05454      -0.21773
  31    C  3  s      Ryd( 3s)     0.00149       0.87711
  32    C  3  px     Val( 2p)     1.12841      -0.08959
  33    C  3  px     Ryd( 3p)     0.00262       0.60945
  34    C  3  py     Val( 2p)     1.18065      -0.08742
  35    C  3  py     Ryd( 3p)     0.00344       0.51793
  36    C  3  pz     Val( 2p)     1.19325      -0.08565
  37    C  3  pz     Ryd( 3p)     0.00199       0.63778
  38    C  3  dxy    Ryd( 3d)     0.00073       2.25421
  39    C  3  dxz    Ryd( 3d)     0.00047       2.15746
  40    C  3  dyz    Ryd( 3d)     0.00034       2.14365
  41    C  3  dx2y2  Ryd( 3d)     0.00043       2.02713
  42    C  3  dz2    Ryd( 3d)     0.00071       2.17877

  43    C  4  s      Cor( 1s)     1.99918      -9.81117
  44    C  4  s      Val( 2s)     1.00300      -0.20421
  45    C  4  s      Ryd( 3s)     0.00081       0.83966
  46    C  4  px     Val( 2p)     1.14515      -0.07970
  47    C  4  px     Ryd( 3p)     0.00477       0.64125
  48    C  4  py     Val( 2p)     0.90690      -0.07173
  49    C  4  py     Ryd( 3p)     0.00402       0.52103
  50    C  4  pz     Val( 2p)     1.16830      -0.07761
  51    C  4  pz     Ryd( 3p)     0.00157       0.57067
  52    C  4  dxy    Ryd( 3d)     0.00107       2.18947
  53    C  4  dxz    Ryd( 3d)     0.00054       2.13509
  54    C  4  dyz    Ryd( 3d)     0.00100       2.02808
  55    C  4  dx2y2  Ryd( 3d)     0.00096       2.14555
  56    C  4  dz2    Ryd( 3d)     0.00102       2.36039

  57    N  5  s      Cor( 1s)     1.99942     -13.83619
  58    N  5  s      Val( 2s)     1.34592      -0.48408
  59    N  5  s      Ryd( 3s)     0.00029       1.12987
  60    N  5  px     Val( 2p)     1.39096      -0.18378
  61    N  5  px     Ryd( 3p)     0.00293       0.92407
  62    N  5  py     Val( 2p)     1.36698      -0.18318
  63    N  5  py     Ryd( 3p)     0.00280       0.96914
  64    N  5  pz     Val( 2p)     1.56959      -0.17441
  65    N  5  pz     Ryd( 3p)     0.00342       0.98235
  66    N  5  dxy    Ryd( 3d)     0.00084       2.38241
  67    N  5  dxz    Ryd( 3d)     0.00118       2.56274
  68    N  5  dyz    Ryd( 3d)     0.00088       2.34495
  69    N  5  dx2y2  Ryd( 3d)     0.00110       2.57151
  70    N  5  dz2    Ryd( 3d)     0.00149       2.55788

  71    C  6  s      Cor( 1s)     1.99909      -9.80851
  72    C  6  s      Val( 2s)     1.02868      -0.20987
  73    C  6  s      Ryd( 3s)     0.00236       0.82364
  74    C  6  px     Val( 2p)     0.91358      -0.07730
  75    C  6  px     Ryd( 3p)     0.00447       0.50403
  76    C  6  py     Val( 2p)     1.15670      -0.08508
  77    C  6  py     Ryd( 3p)     0.00435       0.53072
  78    C  6  pz     Val( 2p)     1.22009      -0.08665
  79    C  6  pz     Ryd( 3p)     0.00197       0.66693
  80    C  6  dxy    Ryd( 3d)     0.00116       2.13166
  81    C  6  dxz    Ryd( 3d)     0.00115       2.09184
  82    C  6  dyz    Ryd( 3d)     0.00058       2.29587
  83    C  6  dx2y2  Ryd( 3d)     0.00099       2.10779
  84    C  6  dz2    Ryd( 3d)     0.00057       2.12559

  85    H  7  s      Val( 1s)     0.74407       0.05306
  86    H  7  s      Ryd( 2s)     0.00279       0.31855
  87    H  7  px     Ryd( 2p)     0.00021       1.77733
  88    H  7  py     Ryd( 2p)     0.00023       1.81023
  89    H  7  pz     Ryd( 2p)     0.00070       2.15026

  90    H  8  s      Val( 1s)     0.74119       0.06960
  91    H  8  s      Ryd( 2s)     0.00266       0.31454
  92    H  8  px     Ryd( 2p)     0.00035       1.87303
  93    H  8  py     Ryd( 2p)     0.00047       2.04270
  94    H  8  pz     Ryd( 2p)     0.00023       1.86050

  95    H  9  s      Val( 1s)     0.76907       0.06569
  96    H  9  s      Ryd( 2s)     0.00169       0.30106
  97    H  9  px     Ryd( 2p)     0.00068       2.10769
  98    H  9  py     Ryd( 2p)     0.00030       1.85682
  99    H  9  pz     Ryd( 2p)     0.00014       1.76406

 100    H 10  s      Val( 1s)     0.78320       0.06339
 101    H 10  s      Ryd( 2s)     0.00317       0.31743
 102    H 10  px     Ryd( 2p)     0.00013       1.77834
 103    H 10  py     Ryd( 2p)     0.00009       1.71109
 104    H 10  pz     Ryd( 2p)     0.00099       2.23372

 105    H 11  s      Val( 1s)     0.63385       0.07457
 106    H 11  s      Ryd( 2s)     0.00296       0.39806
 107    H 11  px     Ryd( 2p)     0.00089       1.92319
 108    H 11  py     Ryd( 2p)     0.00050       1.74352
 109    H 11  pz     Ryd( 2p)     0.00115       2.16134

 110    H 12  s      Val( 1s)     0.75121       0.06223
 111    H 12  s      Ryd( 2s)     0.00209       0.30672
 112    H 12  px     Ryd( 2p)     0.00008       1.69941
 113    H 12  py     Ryd( 2p)     0.00052       2.04798
 114    H 12  pz     Ryd( 2p)     0.00050       1.98962

 115    H 13  s      Val( 1s)     0.75796       0.05679
 116    H 13  s      Ryd( 2s)     0.00346       0.31934
 117    H 13  px     Ryd( 2p)     0.00017       1.78481
 118    H 13  py     Ryd( 2p)     0.00025       1.85887
 119    H 13  pz     Ryd( 2p)     0.00073       2.12859


 Summary of Natural Population Analysis:

                                     Natural Population
             Natural    ---------------------------------------------
  Atom No    Charge        Core      Valence    Rydberg      Total
 --------------------------------------------------------------------
    O  1   -0.51288      1.99970     6.49943    0.01374     8.51288
    C  2    0.55144      1.99921     3.40612    0.04323     5.44856
    C  3   -0.56810      1.99902     4.55685    0.01222     6.56810
    C  4   -0.23829      1.99918     4.22335    0.01577     6.23829
    N  5   -0.68777      1.99942     5.67345    0.01491     7.68777
    C  6   -0.33573      1.99909     4.31904    0.01760     6.33573
    H  7    0.25200      0.00000     0.74407    0.00393     0.74800
    H  8    0.25511      0.00000     0.74119    0.00370     0.74489
    H  9    0.22813      0.00000     0.76907    0.00280     0.77187
    H 10    0.21242      0.00000     0.78320    0.00438     0.78758
    H 11    0.36065      0.00000     0.63385    0.00550     0.63935
    H 12    0.24560      0.00000     0.75121    0.00319     0.75440
    H 13    0.23743      0.00000     0.75796    0.00461     0.76257
 ====================================================================
 * Total *  0.00000     11.99562    33.85880    0.14558    46.00000

                                 Natural Population
 ---------------------------------------------------------
   Core                      11.99562 ( 99.9635% of   12)
   Valence                   33.85880 ( 99.5847% of   34)
   Natural Minimal Basis     45.85442 ( 99.6835% of   46)
   Natural Rydberg Basis      0.14558 (  0.3165% of   46)
 ---------------------------------------------------------

    Atom No         Natural Electron Configuration
 ----------------------------------------------------------------------------
      O  1      [core]2s( 1.68)2p( 4.82)3d( 0.01)
      C  2      [core]2s( 0.84)2p( 2.57)3s( 0.01)3p( 0.03)3d( 0.01)
      C  3      [core]2s( 1.05)2p( 3.50)3p( 0.01)
      C  4      [core]2s( 1.00)2p( 3.22)3p( 0.01)
      N  5      [core]2s( 1.35)2p( 4.33)3p( 0.01)3d( 0.01)
      C  6      [core]2s( 1.03)2p( 3.29)3p( 0.01)
      H  7            1s( 0.74)
      H  8            1s( 0.74)
      H  9            1s( 0.77)
      H 10            1s( 0.78)
      H 11            1s( 0.63)
      H 12            1s( 0.75)
      H 13            1s( 0.76)


 NATURAL BOND ORBITAL ANALYSIS:

                            Occupancies       Lewis Structure    Low   High
         Max    Occ     -------------------  -----------------   occ   occ
  Cycle  Ctr   Thresh    Lewis   non-Lewis     CR  BD  nC  LP    (L)   (NL)
 ============================================================================
    1     2     1.90    42.97317   3.02683      6  11   0   6     4      4
    2     2     1.86    44.17298   1.82702      6  13   0   4     3      3
    3     2     1.85    45.44136   0.55864      6  14   0   3     0      1
 ----------------------------------------------------------------------------

 Structure accepted: No low occupancy Lewis orbitals

 -------------------------------------------------------
   Core                     11.99562 ( 99.964% of  12)
   Valence Lewis            33.44574 ( 98.370% of  34)
  ==================      =============================
   Total Lewis              45.44136 ( 98.786% of  46)
  -----------------------------------------------------
   Valence non-Lewis         0.46478 (  1.010% of  46)
   Rydberg non-Lewis         0.09386 (  0.204% of  46)
  ==================      =============================
   Total non-Lewis           0.55864 (  1.214% of  46)
 -------------------------------------------------------


     (Occupancy)   Bond orbital / Coefficients / Hybrids
 ------------------ Lewis ------------------------------------------------------
   1. (1.99970) CR ( 1) O  1            s(100.00%)
                                         1.0000  0.0000  0.0000  0.0000  0.0000
                                         0.0000  0.0000  0.0000  0.0000  0.0000
                                         0.0000  0.0000  0.0000  0.0000
   2. (1.99921) CR ( 1) C  2            s(100.00%)
                                         1.0000  0.0000  0.0000  0.0000  0.0000
                                         0.0000  0.0000  0.0000  0.0000  0.0000
                                         0.0000  0.0000  0.0000  0.0000
   3. (1.99902) CR ( 1) C  3            s(100.00%)
                                         1.0000  0.0000  0.0000  0.0000  0.0000
                                         0.0000  0.0000  0.0000  0.0000  0.0000
                                         0.0000  0.0000  0.0000  0.0000
   4. (1.99918) CR ( 1) C  4            s(100.00%)
                                         1.0000  0.0000  0.0000  0.0000  0.0000
                                         0.0000  0.0000  0.0000  0.0000  0.0000
                                         0.0000  0.0000  0.0000  0.0000
   5. (1.99942) CR ( 1) N  5            s(100.00%)
                                         1.0000  0.0000  0.0000  0.0000  0.0000
                                         0.0000  0.0000  0.0000  0.0000  0.0000
                                         0.0000  0.0000  0.0000  0.0000
   6. (1.99909) CR ( 1) C  6            s(100.00%)
                                         1.0000  0.0000  0.0000  0.0000  0.0000
                                         0.0000  0.0000  0.0000  0.0000  0.0000
                                         0.0000  0.0000  0.0000  0.0000
   7. (1.97526) LP ( 1) O  1            s( 53.39%)p 0.87( 46.57%)d 0.00(  0.04%)
                                         0.0000  0.7306 -0.0136 -0.6367  0.0041
                                        -0.0279  0.0000  0.2439 -0.0019 -0.0013
                                         0.0119  0.0000 -0.0123  0.0081
   8. (1.85786) LP ( 2) O  1            s(  0.00%)p 1.00( 99.88%)d 0.00(  0.12%)
                                         0.0000  0.0057 -0.0007  0.0186 -0.0002
                                        -0.9957  0.0170 -0.0825  0.0019 -0.0316
                                        -0.0029  0.0119  0.0023  0.0018
   9. (1.91714) LP ( 1) N  5            s( 18.09%)p 4.52( 81.83%)d 0.00(  0.07%)
                                         0.0000  0.4253  0.0044  0.4578  0.0142
                                        -0.4597 -0.0163 -0.6296 -0.0245  0.0115
                                         0.0165 -0.0168  0.0000 -0.0069
  10. (1.99627) BD ( 1) O  1- C  2
               ( 66.77%)   0.8172* O  1 s( 46.61%)p 1.14( 53.20%)d 0.00(  0.19%)
                                         0.0000  0.6823  0.0223  0.6757  0.0178
                                         0.0390  0.0013 -0.2713 -0.0064  0.0037
                                        -0.0243 -0.0017  0.0338 -0.0111
               ( 33.23%)   0.5764* C  2 s( 32.06%)p 2.11( 67.75%)d 0.01(  0.19%)
                                         0.0000  0.5638  0.0521 -0.7705 -0.0600
                                        -0.0419 -0.0039  0.2792  0.0236  0.0039
                                        -0.0240 -0.0012  0.0334 -0.0130
  11. (1.98764) BD ( 2) O  1- C  2
               ( 65.57%)   0.8097* O  1 s(  0.01%)p 1.00( 99.82%)d 0.00(  0.17%)
                                         0.0000  0.0084  0.0018  0.3674  0.0062
                                        -0.0698 -0.0011  0.9263  0.0151 -0.0019
                                         0.0306  0.0030  0.0147 -0.0240
               ( 34.43%)   0.5868* C  2 s(  0.01%)p 1.00( 99.73%)d 0.00(  0.26%)
                                         0.0000  0.0086  0.0020  0.3482 -0.0091
                                        -0.0736  0.0022  0.9326 -0.0308  0.0025
                                        -0.0380 -0.0039 -0.0167  0.0289
  12. (1.97959) BD ( 1) C  2- C  3
               ( 47.54%)   0.6895* C  2 s( 33.90%)p 1.95( 66.06%)d 0.00(  0.04%)
                                         0.0000  0.5821 -0.0142  0.3588 -0.0329
                                         0.7235  0.0142 -0.0821  0.0154  0.0163
                                        -0.0023 -0.0045 -0.0070 -0.0087
               ( 52.46%)   0.7243* C  3 s( 25.52%)p 2.92( 74.44%)d 0.00(  0.04%)
                                         0.0000  0.5051 -0.0084 -0.5076 -0.0151
                                        -0.6843  0.0171  0.1337  0.0081  0.0154
                                        -0.0023 -0.0035 -0.0088 -0.0097
  13. (1.98914) BD ( 1) C  2- C  6
               ( 48.27%)   0.6948* C  2 s( 33.66%)p 1.97( 66.30%)d 0.00(  0.04%)
                                         0.0000  0.5800 -0.0151  0.3893 -0.0315
                                        -0.6842 -0.0156 -0.2046  0.0100 -0.0167
                                        -0.0051  0.0078 -0.0048 -0.0068
               ( 51.73%)   0.7192* C  6 s( 27.59%)p 2.62( 72.36%)d 0.00(  0.05%)
                                         0.0000  0.5251 -0.0141 -0.4903 -0.0151
                                         0.6412 -0.0254  0.2666  0.0069 -0.0162
                                        -0.0059  0.0081 -0.0065 -0.0072
  14. (1.98241) BD ( 1) C  3- C  4
               ( 51.00%)   0.7142* C  3 s( 28.03%)p 2.57( 71.93%)d 0.00(  0.04%)
                                         0.0000  0.5293  0.0084  0.6722  0.0073
                                        -0.2011  0.0181 -0.4760 -0.0091 -0.0099
                                        -0.0128  0.0094  0.0053 -0.0031
               ( 49.00%)   0.7000* C  4 s( 28.87%)p 2.46( 71.09%)d 0.00(  0.04%)
                                         0.0000  0.5373 -0.0053 -0.6346  0.0135
                                         0.3143  0.0336  0.4561 -0.0026 -0.0073
                                        -0.0164  0.0056  0.0091 -0.0010
  15. (1.95132) BD ( 1) C  3- H  7
               ( 62.29%)   0.7893* C  3 s( 22.07%)p 3.53( 77.89%)d 0.00(  0.03%)
                                         0.0000  0.4698 -0.0005  0.2741 -0.0094
                                         0.2970  0.0180  0.7843 -0.0026  0.0015
                                         0.0081  0.0043  0.0002  0.0161
               ( 37.71%)   0.6141* H  7 s( 99.89%)p 0.00(  0.11%)
                                         0.9995 -0.0028 -0.0094 -0.0128 -0.0286
  16. (1.96832) BD ( 1) C  3- H  8
               ( 62.71%)   0.7919* C  3 s( 24.31%)p 3.11( 75.66%)d 0.00(  0.03%)
                                         0.0000  0.4930  0.0061 -0.4631  0.0052
                                         0.6343  0.0046 -0.3736  0.0116 -0.0114
                                         0.0086 -0.0076 -0.0014 -0.0044
               ( 37.29%)   0.6106* H  8 s( 99.90%)p 0.00(  0.10%)
                                         0.9995 -0.0024  0.0179 -0.0232  0.0126
  17. (1.98640) BD ( 1) C  4- N  5
               ( 39.61%)   0.6294* C  4 s( 23.03%)p 3.34( 76.85%)d 0.00(  0.11%)
                                         0.0000  0.4798  0.0115  0.1413  0.0415
                                        -0.8377 -0.0274  0.2102 -0.0095 -0.0059
                                         0.0006 -0.0163 -0.0256 -0.0134
               ( 60.39%)   0.7771* N  5 s( 30.08%)p 2.32( 69.84%)d 0.00(  0.08%)
                                         0.0000  0.5484 -0.0039 -0.0399 -0.0230
                                         0.7984 -0.0072 -0.2422  0.0152 -0.0107
                                         0.0073 -0.0006 -0.0176 -0.0167
  18. (1.98264) BD ( 1) C  4- H  9
               ( 61.56%)   0.7846* C  4 s( 24.51%)p 3.08( 75.46%)d 0.00(  0.04%)
                                         0.0000  0.4950  0.0055  0.7352 -0.0093
                                         0.4416 -0.0088  0.1366 -0.0156  0.0134
                                         0.0054  0.0033  0.0085 -0.0078
               ( 38.44%)   0.6200* H  9 s( 99.89%)p 0.00(  0.11%)
                                         0.9995 -0.0024 -0.0277 -0.0176 -0.0028
  19. (1.97992) BD ( 1) C  4- H 10
               ( 61.18%)   0.7822* C  4 s( 23.48%)p 3.26( 76.49%)d 0.00(  0.04%)
                                         0.0000  0.4845 -0.0073 -0.1866  0.0242
                                         0.0324  0.0050 -0.8535  0.0025  0.0009
                                         0.0091  0.0001  0.0022  0.0167
               ( 38.82%)   0.6230* H 10 s( 99.88%)p 0.00(  0.12%)
                                         0.9994 -0.0067  0.0045 -0.0021  0.0342
  20. (1.98723) BD ( 1) N  5- C  6
               ( 60.06%)   0.7750* N  5 s( 30.53%)p 2.27( 69.39%)d 0.00(  0.08%)
                                         0.0000  0.5525 -0.0023 -0.7314 -0.0003
                                        -0.3797  0.0297  0.1178  0.0047  0.0061
                                        -0.0109 -0.0095  0.0217 -0.0086
               ( 39.94%)   0.6320* C  6 s( 24.38%)p 3.10( 75.51%)d 0.00(  0.11%)
                                         0.0000  0.4933  0.0213  0.8101  0.0440
                                         0.2758 -0.0218 -0.1424 -0.0066  0.0206
                                        -0.0077 -0.0030  0.0180 -0.0169
  21. (1.97969) BD ( 1) N  5- H 11
               ( 68.48%)   0.8275* N  5 s( 21.22%)p 3.71( 78.69%)d 0.00(  0.09%)
                                         0.0000  0.4606  0.0016  0.5018 -0.0278
                                        -0.0708  0.0130  0.7273 -0.0107  0.0064
                                         0.0141  0.0041 -0.0007  0.0255
               ( 31.52%)   0.5614* H 11 s( 99.80%)p 0.00(  0.20%)
                                         0.9990 -0.0058 -0.0301  0.0074 -0.0325
  22. (1.96881) BD ( 1) C  6- H 12
               ( 62.15%)   0.7884* C  6 s( 24.79%)p 3.03( 75.17%)d 0.00(  0.03%)
                                         0.0000  0.4979  0.0053  0.0171 -0.0002
                                        -0.6381 -0.0015  0.5865 -0.0165 -0.0004
                                        -0.0006 -0.0146 -0.0084  0.0062
               ( 37.85%)   0.6152* H 12 s( 99.90%)p 0.00(  0.10%)
                                         0.9995 -0.0018  0.0017  0.0244 -0.0212
  23. (1.95608) BD ( 1) C  6- H 13
               ( 62.05%)   0.7877* C  6 s( 23.15%)p 3.32( 76.81%)d 0.00(  0.04%)
                                         0.0000  0.4812  0.0001 -0.3154  0.0080
                                        -0.3233 -0.0155 -0.7508  0.0097  0.0031
                                         0.0136  0.0058  0.0008  0.0113
               ( 37.95%)   0.6161* H 13 s( 99.89%)p 0.00(  0.11%)
                                         0.9994 -0.0069  0.0110  0.0143  0.0277
 ---------------- non-Lewis ----------------------------------------------------
  24. (0.01416) BD*( 1) O  1- C  2
               ( 33.23%)   0.5764* O  1 s( 46.61%)p 1.14( 53.20%)d 0.00(  0.19%)
                                         0.0000 -0.6823 -0.0223 -0.6757 -0.0178
                                        -0.0390 -0.0013  0.2713  0.0064 -0.0037
                                         0.0243  0.0017 -0.0338  0.0111
               ( 66.77%)  -0.8172* C  2 s( 32.06%)p 2.11( 67.75%)d 0.01(  0.19%)
                                         0.0000 -0.5638 -0.0521  0.7705  0.0600
                                         0.0419  0.0039 -0.2792 -0.0236 -0.0039
                                         0.0240  0.0012 -0.0334  0.0130
  25. (0.10279) BD*( 2) O  1- C  2
               ( 34.43%)   0.5868* O  1 s(  0.01%)p 1.00( 99.82%)d 0.00(  0.17%)
                                         0.0000 -0.0084 -0.0018 -0.3674 -0.0062
                                         0.0698  0.0011 -0.9263 -0.0151  0.0019
                                        -0.0306 -0.0030 -0.0147  0.0240
               ( 65.57%)  -0.8097* C  2 s(  0.01%)p 1.00( 99.73%)d 0.00(  0.26%)
                                         0.0000 -0.0086 -0.0020 -0.3482  0.0091
                                         0.0736 -0.0022 -0.9326  0.0308 -0.0025
                                         0.0380  0.0039  0.0167 -0.0289
  26. (0.08037) BD*( 1) C  2- C  3
               ( 52.46%)   0.7243* C  2 s( 33.90%)p 1.95( 66.06%)d 0.00(  0.04%)
                                         0.0000  0.5821 -0.0142  0.3588 -0.0329
                                         0.7235  0.0142 -0.0821  0.0154  0.0163
                                        -0.0023 -0.0045 -0.0070 -0.0087
               ( 47.54%)  -0.6895* C  3 s( 25.52%)p 2.92( 74.44%)d 0.00(  0.04%)
                                         0.0000  0.5051 -0.0084 -0.5076 -0.0151
                                        -0.6843  0.0171  0.1337  0.0081  0.0154
                                        -0.0023 -0.0035 -0.0088 -0.0097
  27. (0.09143) BD*( 1) C  2- C  6
               ( 51.73%)   0.7192* C  2 s( 33.66%)p 1.97( 66.30%)d 0.00(  0.04%)
                                         0.0000  0.5800 -0.0151  0.3893 -0.0315
                                        -0.6842 -0.0156 -0.2046  0.0100 -0.0167
                                        -0.0051  0.0078 -0.0048 -0.0068
               ( 48.27%)  -0.6948* C  6 s( 27.59%)p 2.62( 72.36%)d 0.00(  0.05%)
                                         0.0000  0.5251 -0.0141 -0.4903 -0.0151
                                         0.6412 -0.0254  0.2666  0.0069 -0.0162
                                        -0.0059  0.0081 -0.0065 -0.0072
  28. (0.02554) BD*( 1) C  3- C  4
               ( 49.00%)   0.7000* C  3 s( 28.03%)p 2.57( 71.93%)d 0.00(  0.04%)
                                         0.0000 -0.5293 -0.0084 -0.6722 -0.0073
                                         0.2011 -0.0181  0.4760  0.0091  0.0099
                                         0.0128 -0.0094 -0.0053  0.0031
               ( 51.00%)  -0.7142* C  4 s( 28.87%)p 2.46( 71.09%)d 0.00(  0.04%)
                                         0.0000 -0.5373  0.0053  0.6346 -0.0135
                                        -0.3143 -0.0336 -0.4561  0.0026  0.0073
                                         0.0164 -0.0056 -0.0091  0.0010
  29. (0.01456) BD*( 1) C  3- H  7
               ( 37.71%)   0.6141* C  3 s( 22.07%)p 3.53( 77.89%)d 0.00(  0.03%)
                                         0.0000 -0.4698  0.0005 -0.2741  0.0094
                                        -0.2970 -0.0180 -0.7843  0.0026 -0.0015
                                        -0.0081 -0.0043 -0.0002 -0.0161
               ( 62.29%)  -0.7893* H  7 s( 99.89%)p 0.00(  0.11%)
                                        -0.9995  0.0028  0.0094  0.0128  0.0286
  30. (0.01280) BD*( 1) C  3- H  8
               ( 37.29%)   0.6106* C  3 s( 24.31%)p 3.11( 75.66%)d 0.00(  0.03%)
                                         0.0000 -0.4930 -0.0061  0.4631 -0.0052
                                        -0.6343 -0.0046  0.3736 -0.0116  0.0114
                                        -0.0086  0.0076  0.0014  0.0044
               ( 62.71%)  -0.7919* H  8 s( 99.90%)p 0.00(  0.10%)
                                        -0.9995  0.0024 -0.0179  0.0232 -0.0126
  31. (0.01939) BD*( 1) C  4- N  5
               ( 60.39%)   0.7771* C  4 s( 23.03%)p 3.34( 76.85%)d 0.00(  0.11%)
                                         0.0000  0.4798  0.0115  0.1413  0.0415
                                        -0.8377 -0.0274  0.2102 -0.0095 -0.0059
                                         0.0006 -0.0163 -0.0256 -0.0134
               ( 39.61%)  -0.6294* N  5 s( 30.08%)p 2.32( 69.84%)d 0.00(  0.08%)
                                         0.0000  0.5484 -0.0039 -0.0399 -0.0230
                                         0.7984 -0.0072 -0.2422  0.0152 -0.0107
                                         0.0073 -0.0006 -0.0176 -0.0167
  32. (0.01267) BD*( 1) C  4- H  9
               ( 38.44%)   0.6200* C  4 s( 24.51%)p 3.08( 75.46%)d 0.00(  0.04%)
                                         0.0000 -0.4950 -0.0055 -0.7352  0.0093
                                        -0.4416  0.0088 -0.1366  0.0156 -0.0134
                                        -0.0054 -0.0033 -0.0085  0.0078
               ( 61.56%)  -0.7846* H  9 s( 99.89%)p 0.00(  0.11%)
                                        -0.9995  0.0024  0.0277  0.0176  0.0028
  33. (0.02551) BD*( 1) C  4- H 10
               ( 38.82%)   0.6230* C  4 s( 23.48%)p 3.26( 76.49%)d 0.00(  0.04%)
                                         0.0000 -0.4845  0.0073  0.1866 -0.0242
                                        -0.0324 -0.0050  0.8535 -0.0025 -0.0009
                                        -0.0091 -0.0001 -0.0022 -0.0167
               ( 61.18%)  -0.7822* H 10 s( 99.88%)p 0.00(  0.12%)
                                        -0.9994  0.0067 -0.0045  0.0021 -0.0342
  34. (0.01190) BD*( 1) N  5- C  6
               ( 39.94%)   0.6320* N  5 s( 30.53%)p 2.27( 69.39%)d 0.00(  0.08%)
                                         0.0000 -0.5525  0.0023  0.7314  0.0003
                                         0.3797 -0.0297 -0.1178 -0.0047 -0.0061
                                         0.0109  0.0095 -0.0217  0.0086
               ( 60.06%)  -0.7750* C  6 s( 24.38%)p 3.10( 75.51%)d 0.00(  0.11%)
                                         0.0000 -0.4933 -0.0213 -0.8101 -0.0440
                                        -0.2758  0.0218  0.1424  0.0066 -0.0206
                                         0.0077  0.0030 -0.0180  0.0169
  35. (0.01609) BD*( 1) N  5- H 11
               ( 31.52%)   0.5614* N  5 s( 21.22%)p 3.71( 78.69%)d 0.00(  0.09%)
                                         0.0000 -0.4606 -0.0016 -0.5018  0.0278
                                         0.0708 -0.0130 -0.7273  0.0107 -0.0064
                                        -0.0141 -0.0041  0.0007 -0.0255
               ( 68.48%)  -0.8275* H 11 s( 99.80%)p 0.00(  0.20%)
                                        -0.9990  0.0058  0.0301 -0.0074  0.0325
  36. (0.01112) BD*( 1) C  6- H 12
               ( 37.85%)   0.6152* C  6 s( 24.79%)p 3.03( 75.17%)d 0.00(  0.03%)
                                         0.0000 -0.4979 -0.0053 -0.0171  0.0002
                                         0.6381  0.0015 -0.5865  0.0165  0.0004
                                         0.0006  0.0146  0.0084 -0.0062
               ( 62.15%)  -0.7884* H 12 s( 99.90%)p 0.00(  0.10%)
                                        -0.9995  0.0018 -0.0017 -0.0244  0.0212
  37. (0.02645) BD*( 1) C  6- H 13
               ( 37.95%)   0.6161* C  6 s( 23.15%)p 3.32( 76.81%)d 0.00(  0.04%)
                                         0.0000 -0.4812 -0.0001  0.3154 -0.0080
                                         0.3233  0.0155  0.7508 -0.0097 -0.0031
                                        -0.0136 -0.0058 -0.0008 -0.0113
               ( 62.05%)  -0.7877* H 13 s( 99.89%)p 0.00(  0.11%)
                                        -0.9994  0.0069 -0.0110 -0.0143 -0.0277
  38. (0.00305) RY ( 1) O  1            s(  0.02%)p99.99( 97.29%)d99.99(  2.68%)
                                         0.0000  0.0001  0.0152  0.0004  0.0163
                                        -0.0113 -0.9816 -0.0007 -0.0952 -0.1524
                                        -0.0143  0.0563  0.0112  0.0109
  39. (0.00045) RY ( 2) O  1            s( 96.75%)p 0.03(  3.16%)d 0.00(  0.09%)
                                         0.0000 -0.0073  0.9836 -0.0256  0.1694
                                        -0.0014  0.0140  0.0057  0.0450 -0.0033
                                         0.0278  0.0015  0.0002  0.0103
  40. (0.00016) RY ( 3) O  1            s(  0.92%)p99.99( 95.49%)d 3.88(  3.58%)
                                         0.0000 -0.0010  0.0961  0.0069 -0.3060
                                        -0.0021  0.0862  0.0226 -0.9237  0.0042
                                        -0.1254 -0.0277 -0.0669  0.1219
  41. (0.00006) RY ( 4) O  1            s(  1.60%)p49.69( 79.65%)d11.70( 18.75%)
  42. (0.00002) RY ( 5) O  1            s(  0.57%)p31.19( 17.76%)d99.99( 81.67%)
  43. (0.00000) RY ( 6) O  1            s(  0.03%)p68.67(  2.27%)d99.99( 97.69%)
  44. (0.00001) RY ( 7) O  1            s(  0.00%)p 1.00(  0.76%)d99.99( 99.24%)
  45. (0.00000) RY ( 8) O  1            s(  0.06%)p 9.51(  0.61%)d99.99( 99.33%)
  46. (0.00000) RY ( 9) O  1            s(  0.02%)p99.99(  3.53%)d99.99( 96.45%)
  47. (0.01993) RY ( 1) C  2            s( 15.34%)p 5.52( 84.64%)d 0.00(  0.02%)
                                         0.0000 -0.0756  0.3843  0.0422 -0.8599
                                         0.0011 -0.0595 -0.0136  0.3186  0.0021
                                         0.0024  0.0098 -0.0091 -0.0003
  48. (0.00704) RY ( 2) C  2            s(  0.04%)p99.99( 46.33%)d99.99( 53.63%)
                                         0.0000  0.0015  0.0195  0.0008  0.0274
                                         0.0329 -0.6750  0.0018 -0.0765 -0.6791
                                        -0.0686  0.2542  0.0684  0.0349
  49. (0.00302) RY ( 3) C  2            s(  0.06%)p99.99( 61.26%)d99.99( 38.68%)
                                         0.0000  0.0001  0.0244  0.0213  0.2838
                                        -0.0052 -0.0663  0.0523  0.7242 -0.0292
                                         0.4680  0.0519  0.2025 -0.3511
  50. (0.00197) RY ( 4) C  2            s( 47.90%)p 0.37( 17.61%)d 0.72( 34.48%)
                                         0.0000  0.0040  0.6921  0.0448  0.2699
                                         0.0010 -0.2815 -0.0201 -0.1471  0.3002
                                        -0.1942 -0.2235  0.4029 -0.0688
  51. (0.00115) RY ( 5) C  2            s( 10.37%)p 4.45( 46.20%)d 4.19( 43.43%)
                                         0.0000 -0.0001  0.3220  0.0206  0.1102
                                         0.0020  0.6691 -0.0094  0.0396 -0.5661
                                        -0.1840  0.1167  0.2556  0.0330
  52. (0.00058) RY ( 6) C  2            s(  0.79%)p 0.19(  0.15%)d99.99( 99.06%)
                                         0.0000  0.0049  0.0890 -0.0076  0.0341
                                        -0.0002 -0.0169  0.0022 -0.0008 -0.3396
                                         0.0435 -0.8113 -0.4024 -0.2306
  53. (0.00027) RY ( 7) C  2            s( 24.00%)p 0.24(  5.82%)d 2.92( 70.18%)
                                         0.0000  0.0215  0.4894 -0.0048  0.1623
                                         0.0000  0.0501  0.0021 -0.1711  0.0427
                                         0.3034  0.4131 -0.6519 -0.1111
  54. (0.00004) RY ( 8) C  2            s(  0.03%)p99.99( 26.51%)d99.99( 73.47%)
  55. (0.00001) RY ( 9) C  2            s(  1.83%)p 6.36( 11.66%)d47.21( 86.51%)
  56. (0.00350) RY ( 1) C  3            s(  8.24%)p10.58( 87.14%)d 0.56(  4.63%)
                                         0.0000  0.0219  0.2862  0.0015  0.5980
                                        -0.0139 -0.7054  0.0187  0.1248 -0.1162
                                         0.0480 -0.0070 -0.0583 -0.1643
  57. (0.00189) RY ( 2) C  3            s(  3.70%)p22.98( 85.05%)d 3.04( 11.25%)
                                         0.0000 -0.0057  0.1923  0.0172 -0.2557
                                         0.0005  0.0322  0.0016  0.8853  0.0612
                                        -0.0514 -0.1797  0.2000 -0.1838
  58. (0.00170) RY ( 3) C  3            s( 28.52%)p 2.34( 66.78%)d 0.16(  4.70%)
                                         0.0000  0.0083  0.5340 -0.0045 -0.6479
                                        -0.0007 -0.4266 -0.0045 -0.2569  0.0051
                                        -0.0808  0.1094  0.0780  0.1496
  59. (0.00081) RY ( 4) C  3            s( 51.79%)p 0.79( 40.98%)d 0.14(  7.24%)
                                         0.0000 -0.0148  0.7195 -0.0146  0.3097
                                        -0.0042  0.5325  0.0104 -0.1733 -0.0523
                                        -0.0881 -0.0863  0.2117 -0.0982
  60. (0.00029) RY ( 5) C  3            s(  1.99%)p 2.89(  5.76%)d46.31( 92.25%)
                                         0.0000 -0.0087  0.1409 -0.0002 -0.0962
                                        -0.0104  0.1427  0.0027  0.1670 -0.7103
                                         0.0865  0.0177 -0.6210  0.1567
  61. (0.00022) RY ( 6) C  3            s(  0.02%)p99.99(  2.53%)d99.99( 97.46%)
                                         0.0000  0.0035  0.0136 -0.0018  0.1366
                                         0.0026 -0.0541 -0.0024  0.0605  0.1901
                                        -0.6239 -0.4380 -0.1880  0.5674
  62. (0.00010) RY ( 7) C  3            s(  4.87%)p 0.18(  0.87%)d19.36( 94.26%)
  63. (0.00003) RY ( 8) C  3            s(  0.69%)p15.60( 10.77%)d99.99( 88.54%)
  64. (0.00001) RY ( 9) C  3            s(  0.26%)p 0.77(  0.20%)d99.99( 99.54%)
  65. (0.00378) RY ( 1) C  4            s(  4.99%)p15.75( 78.57%)d 3.30( 16.44%)
                                         0.0000  0.0183  0.2226 -0.0378 -0.6253
                                        -0.0052 -0.5544 -0.0083 -0.2931  0.3518
                                        -0.0817 -0.0953  0.0745 -0.1391
  66. (0.00296) RY ( 2) C  4            s(  3.68%)p21.06( 77.47%)d 5.12( 18.85%)
                                         0.0000  0.0205  0.1907  0.0123 -0.6096
                                        -0.0391  0.6213 -0.0133  0.1232 -0.1481
                                        -0.0590  0.3126 -0.0221 -0.2547
  67. (0.00142) RY ( 3) C  4            s(  1.42%)p39.99( 56.62%)d29.63( 41.96%)
                                         0.0000 -0.0174  0.1177 -0.0078  0.2331
                                         0.0185 -0.0537 -0.0125 -0.7131 -0.3772
                                         0.0717  0.2578 -0.1842 -0.4144
  68. (0.00079) RY ( 4) C  4            s(  9.69%)p 3.33( 32.26%)d 5.99( 58.05%)
                                         0.0000 -0.0002  0.3113 -0.0039  0.1818
                                         0.0179 -0.3473 -0.0020  0.4106  0.0635
                                        -0.3080  0.5983 -0.3473 -0.0544
  69. (0.00032) RY ( 5) C  4            s( 50.24%)p 0.13(  6.48%)d 0.86( 43.28%)
                                         0.0000 -0.0007  0.7088 -0.0031  0.0749
                                         0.0119 -0.1233 -0.0015  0.2094 -0.4573
                                         0.1283 -0.2876  0.3528  0.0025
  70. (0.00021) RY ( 6) C  4            s( 19.42%)p 0.43(  8.36%)d 3.72( 72.22%)
                                         0.0000 -0.0060  0.4407 -0.0049  0.0381
                                         0.0177  0.2470  0.0029 -0.1443  0.2807
                                         0.2185 -0.2792 -0.6673  0.2691
  71. (0.00009) RY ( 7) C  4            s(  5.44%)p 3.05( 16.62%)d14.32( 77.94%)
  72. (0.00002) RY ( 8) C  4            s(  4.10%)p 4.41( 18.07%)d18.97( 77.83%)
  73. (0.00001) RY ( 9) C  4            s(  1.13%)p 5.01(  5.66%)d82.47( 93.21%)
  74. (0.00299) RY ( 1) N  5            s(  2.91%)p30.67( 89.21%)d 2.71(  7.88%)
                                         0.0000 -0.0135  0.1700  0.0159 -0.4107
                                        -0.0159  0.4803 -0.0247  0.7012  0.2071
                                         0.1288 -0.0978 -0.0660  0.0736
  75. (0.00092) RY ( 2) N  5            s(  2.03%)p30.76( 62.42%)d17.52( 35.55%)
                                         0.0000 -0.0143  0.1417 -0.0087 -0.5672
                                         0.0010  0.1320 -0.0089 -0.5338  0.3889
                                        -0.3128 -0.0642 -0.2800 -0.1546
  76. (0.00045) RY ( 3) N  5            s(  0.24%)p99.99( 84.06%)d65.40( 15.70%)
                                         0.0000 -0.0012  0.0490  0.0149  0.4450
                                         0.0280  0.7529 -0.0086 -0.2731 -0.0923
                                        -0.1516 -0.2991  0.0040  0.1898
  77. (0.00027) RY ( 4) N  5            s(  1.85%)p 8.36( 15.47%)d44.67( 82.68%)
                                         0.0000  0.0018  0.1360  0.0028  0.2590
                                         0.0038  0.2841  0.0028 -0.0826  0.2866
                                         0.3132  0.6861 -0.0434 -0.4171
  78. (0.00012) RY ( 5) N  5            s( 75.82%)p 0.04(  3.15%)d 0.28( 21.03%)
                                         0.0000  0.0014  0.8708 -0.0173  0.0408
                                        -0.0040 -0.1512  0.0081 -0.0811 -0.2944
                                         0.2334 -0.0991 -0.2368  0.0569
  79. (0.00010) RY ( 6) N  5            s( 13.68%)p 0.10(  1.40%)d 6.21( 84.92%)
  80. (0.00005) RY ( 7) N  5            s(  0.54%)p69.75( 37.71%)d99.99( 61.75%)
  81. (0.00002) RY ( 8) N  5            s(  0.12%)p17.41(  2.05%)d99.99( 97.84%)
  82. (0.00001) RY ( 9) N  5            s(  2.90%)p 1.65(  4.79%)d31.89( 92.32%)
  83. (0.00474) RY ( 1) C  6            s( 16.21%)p 4.61( 74.72%)d 0.56(  9.07%)
                                         0.0000  0.0113  0.4025 -0.0323  0.4075
                                         0.0198  0.6892 -0.0027 -0.3235  0.1912
                                        -0.0191 -0.0914 -0.2106 -0.0325
  84. (0.00293) RY ( 2) C  6            s( 16.81%)p 3.95( 66.37%)d 1.00( 16.82%)
                                         0.0000  0.0215  0.4094  0.0202 -0.7258
                                         0.0030  0.3298 -0.0156  0.1657 -0.1705
                                        -0.3336 -0.1116  0.1235  0.0111
  85. (0.00141) RY ( 3) C  6            s( 10.38%)p 6.65( 68.99%)d 1.99( 20.62%)
                                         0.0000  0.0005  0.3222 -0.0071  0.2447
                                        -0.0050  0.1190  0.0238  0.7844  0.0383
                                         0.3078  0.2937  0.1541 -0.0039
  86. (0.00090) RY ( 4) C  6            s(  0.60%)p39.58( 23.59%)d99.99( 75.81%)
                                         0.0000 -0.0111  0.0764 -0.0218  0.4772
                                        -0.0115 -0.0820  0.0015  0.0290 -0.4642
                                        -0.6143 -0.0344  0.4048  0.0168
  87. (0.00063) RY ( 5) C  6            s( 40.85%)p 0.81( 33.11%)d 0.64( 26.05%)
                                         0.0000 -0.0207  0.6388 -0.0280 -0.0116
                                        -0.0006 -0.4523  0.0063 -0.3543  0.0620
                                         0.3022 -0.0766  0.3554 -0.1819
  88. (0.00026) RY ( 6) C  6            s(  5.20%)p 2.28( 11.85%)d15.95( 82.95%)
                                         0.0000 -0.0127  0.2277 -0.0158  0.0348
                                        -0.0019 -0.3267  0.0066  0.1013  0.6361
                                        -0.5143  0.1520 -0.2094  0.3056
  89. (0.00014) RY ( 7) C  6            s(  9.24%)p 0.78(  7.22%)d 9.04( 83.54%)
                                         0.0000 -0.0082  0.3039  0.0161  0.0414
                                        -0.0037 -0.2620 -0.0075  0.0391 -0.5025
                                        -0.0172  0.1116 -0.7512 -0.0767
  90. (0.00005) RY ( 8) C  6            s(  0.30%)p28.98(  8.61%)d99.99( 91.09%)
  91. (0.00001) RY ( 9) C  6            s(  0.49%)p11.59(  5.69%)d99.99( 93.82%)
  92. (0.00282) RY ( 1) H  7            s( 99.23%)p 0.01(  0.77%)
                                         0.0056  0.9961  0.0222  0.0446  0.0720
  93. (0.00017) RY ( 2) H  7            s(  0.00%)p 1.00(100.00%)
                                         0.0015  0.0041 -0.4877 -0.6979  0.5245
  94. (0.00013) RY ( 3) H  7            s(  0.05%)p99.99( 99.95%)
                                        -0.0102  0.0195 -0.8719  0.4161 -0.2572
  95. (0.00002) RY ( 4) H  7            s(  0.82%)p99.99( 99.18%)
  96. (0.00268) RY ( 1) H  8            s( 99.25%)p 0.01(  0.75%)
                                         0.0047  0.9962 -0.0220  0.0840 -0.0027
  97. (0.00014) RY ( 2) H  8            s(  0.04%)p99.99( 99.96%)
                                         0.0099  0.0171 -0.7882 -0.4243 -0.4453
  98. (0.00010) RY ( 3) H  8            s(  0.04%)p99.99( 99.96%)
  99. (0.00002) RY ( 4) H  8            s(  0.78%)p99.99( 99.22%)
 100. (0.00171) RY ( 1) H  9            s( 99.10%)p 0.01(  0.90%)
                                         0.0050  0.9955  0.0804  0.0149  0.0484
 101. (0.00014) RY ( 2) H  9            s(  0.25%)p99.99( 99.75%)
                                        -0.0090  0.0495  0.0128 -0.3927 -0.9182
 102. (0.00008) RY ( 3) H  9            s(  0.51%)p99.99( 99.49%)
 103. (0.00002) RY ( 4) H  9            s(  0.25%)p99.99( 99.75%)
 104. (0.00321) RY ( 1) H 10            s( 99.92%)p 0.00(  0.08%)
                                         0.0071  0.9996 -0.0257  0.0074 -0.0065
 105. (0.00013) RY ( 2) H 10            s(  0.05%)p99.99( 99.95%)
                                         0.0166 -0.0157 -0.6690 -0.6007 -0.4371
 106. (0.00009) RY ( 3) H 10            s(  0.05%)p99.99( 99.95%)
 107. (0.00002) RY ( 4) H 10            s(  0.09%)p99.99( 99.91%)
 108. (0.00314) RY ( 1) H 11            s( 93.56%)p 0.07(  6.44%)
                                         0.0109  0.9672 -0.0500  0.0907  0.2316
 109. (0.00081) RY ( 2) H 11            s(  4.82%)p19.73( 95.18%)
                                         0.0033  0.2196  0.5631 -0.5427 -0.5832
 110. (0.00030) RY ( 3) H 11            s(  0.02%)p99.99( 99.98%)
                                         0.0007  0.0129  0.5099  0.8185 -0.2644
 111. (0.00003) RY ( 4) H 11            s(  1.80%)p54.65( 98.20%)
 112. (0.00212) RY ( 1) H 12            s( 99.02%)p 0.01(  0.98%)
                                         0.0046  0.9951  0.0351 -0.0846  0.0377
 113. (0.00017) RY ( 2) H 12            s(  0.02%)p99.99( 99.98%)
                                         0.0082  0.0130 -0.2577  0.4321  0.8641
 114. (0.00008) RY ( 3) H 12            s(  0.50%)p99.99( 99.50%)
 115. (0.00002) RY ( 4) H 12            s(  0.56%)p99.99( 99.44%)
 116. (0.00350) RY ( 1) H 13            s( 99.87%)p 0.00(  0.13%)
                                         0.0077  0.9993 -0.0103 -0.0342 -0.0069
 117. (0.00016) RY ( 2) H 13            s(  0.04%)p99.99( 99.96%)
                                         0.0040  0.0188 -0.5390  0.7776 -0.3231
 118. (0.00012) RY ( 3) H 13            s(  0.04%)p99.99( 99.96%)
                                         0.0197 -0.0027  0.4724 -0.0383 -0.8803
 119. (0.00002) RY ( 4) H 13            s(  0.17%)p99.99( 99.83%)


 NHO DIRECTIONALITY AND BOND BENDING (deviation from line of nuclear centers at
                                      the position of maximum hybrid amplitude)

         [Thresholds for printing:  angular deviation  >  1.0 degree]
                                    p- or d-character  > 25.0%
                                    orbital occupancy  >  0.10e

                        Line of Centers        Hybrid 1             Hybrid 2
                        ---------------  -------------------  ------------------
           NBO            Theta   Phi    Theta   Phi    Dev   Theta   Phi    Dev
 ===============================================================================
   7. LP ( 1) O  1          --     --     69.1  182.4   --      --     --    --
   8. LP ( 2) O  1          --     --     95.0  271.8   --      --     --    --
   9. LP ( 1) N  5          --     --    134.6  314.8   --      --     --    --
  11. BD ( 2) O  1- C  2  110.8    3.2    23.0  349.9  88.4    18.8  346.7  87.3
  12. BD ( 1) C  2- C  3   98.1   56.7    95.7   63.5   7.2    81.1  233.9   2.9
  13. BD ( 1) C  2- C  6  106.8  306.4   104.7  299.9   6.6    71.8  127.8   1.9
  14. BD ( 1) C  3- C  4  122.9  337.1   124.1  342.5   4.7    57.2  153.0   3.4
  17. BD ( 1) C  4- N  5   75.8  277.8    76.0  279.8   2.0   106.1   93.2   4.8
  19. BD ( 1) C  4- H 10  167.2  166.3   167.5  171.5   1.2     --     --    --
  20. BD ( 1) N  5- C  6   80.4  201.5    81.2  206.9   5.5    99.4   18.8   2.7
  21. BD ( 1) N  5- H 11   32.4  354.5    33.6  353.1   1.4     --     --    --
  22. BD ( 1) C  6- H 12   47.6  268.9    47.5  270.6   1.3     --     --    --
  23. BD ( 1) C  6- H 13  147.5  222.9   149.1  224.8   1.8     --     --    --


 SECOND ORDER PERTURBATION THEORY ANALYSIS OF FOCK MATRIX IN NBO BASIS

     Threshold for printing:   0.50 kcal/mol
                                                          E(2) E(NL)-E(L) F(L,NL)
      Donor (L) NBO              Acceptor (NL) NBO      kcal/mol   a.u.    a.u.
 ===============================================================================

 within unit  1
    1. CR ( 1) O  1            26. BD*( 1) C  2- C  3      0.77   18.83   0.107
    1. CR ( 1) O  1            27. BD*( 1) C  2- C  6      0.73   18.82   0.105
    1. CR ( 1) O  1            47. RY ( 1) C  2            7.84   19.00   0.345
    2. CR ( 1) C  2            47. RY ( 1) C  2            0.51   10.37   0.065
    2. CR ( 1) C  2            58. RY ( 3) C  3            0.71   10.62   0.077
    2. CR ( 1) C  2            84. RY ( 2) C  6            0.89   10.74   0.087
    3. CR ( 1) C  3            24. BD*( 1) O  1- C  2      0.66   10.35   0.074
    3. CR ( 1) C  3            48. RY ( 2) C  2            0.88   11.31   0.089
    3. CR ( 1) C  3            51. RY ( 5) C  2            0.55   11.21   0.070
    3. CR ( 1) C  3            66. RY ( 2) C  4            1.04   10.61   0.094
    3. CR ( 1) C  3            92. RY ( 1) H  7            0.79   10.13   0.080
    3. CR ( 1) C  3            96. RY ( 1) H  8            0.80   10.12   0.081
    4. CR ( 1) C  4            34. BD*( 1) N  5- C  6      0.68   10.12   0.074
[...]
 10 H                 0.3       0.0      -0.0       0.4      65.9       0.0
 11 H                 0.0       0.0      -0.0       0.0       0.0      56.7
 12 H                -0.1      -0.0       0.0       0.0      -0.1       0.1

                     36        37        38        39        40        41   
                   0.00000   0.00000   0.00000   0.00000   0.00000   0.00000
                   0.02645   0.00305   0.00045   0.00016   0.00006   0.00002
                  --------  --------  --------  --------  --------  --------
  0 O                -0.0     117.7     133.4     107.1     103.3     103.3
  1 C                -0.6     -17.2     -27.4      -5.6      -3.2      -3.3
  2 C                -0.0      -0.2      -2.5      -0.6      -0.1      -0.0
  3 C                -0.1      -0.0      -0.3      -0.0      -0.0       0.0
  4 N                -0.2      -0.0      -0.4      -0.1      -0.0      -0.0
  5 C                44.4      -0.1      -2.0      -0.5       0.0      -0.0
  6 H                 0.0      -0.0      -0.2      -0.0       0.0      -0.0
  7 H                -0.0      -0.1      -0.1      -0.1       0.0      -0.0
  8 H                -0.0      -0.0      -0.1      -0.0       0.0       0.0
  9 H                 0.0      -0.0      -0.1      -0.0       0.0       0.0
 11 H                 0.0      -0.0      -0.1      -0.1       0.0      -0.0
 12 H                56.6      -0.0      -0.2      -0.0       0.0      -0.0

                     42        43        44        45        46        47   
                   0.00000   0.00000   0.00000   0.00000   0.00000   0.00000
                   0.00000   0.00001   0.00000   0.00000   0.01993   0.00704
                  --------  --------  --------  --------  --------  --------
  0 O               102.6     101.0     100.8     102.9     -37.6     -12.0
  1 C                -2.0      -0.8      -0.7      -2.6     156.2     150.7
  2 C                -0.3      -0.1      -0.1      -0.1      -7.8     -18.0
  3 C                -0.0      -0.0      -0.0      -0.0      -1.7      -0.7
  4 N                -0.0      -0.0      -0.0      -0.0      -0.7      -0.4
  5 C                -0.3      -0.1      -0.0      -0.1      -7.8     -20.7
  6 H                 0.0      -0.0      -0.0      -0.0      -0.2       0.0
  7 H                 0.0       0.0      -0.0      -0.0      -0.1       0.5
  8 H                -0.0      -0.0      -0.0      -0.0      -0.1       0.0
 11 H                 0.0      -0.0      -0.0      -0.0      -0.2       0.4
 12 H                -0.0       0.0      -0.0      -0.0      -0.2       0.1

                     48        49        50        51        52        53   
                   0.00000   0.00000   0.00000   0.00000   0.00000   0.00000
                   0.00302   0.00197   0.00115   0.00058   0.00027   0.00004
                  --------  --------  --------  --------  --------  --------
  0 O                -6.4      -0.9      -7.5      -0.2      -0.5      -0.8
  1 C               113.8     200.5     178.3     103.0     138.0     107.7
  2 C                -3.3     -27.8     -64.6      -1.5     -21.7      -3.7
  3 C                 0.2       3.8       2.2       0.1       2.4       0.1
  4 N                 0.0       1.9      -1.0      -0.1       0.7      -0.2
  5 C                -3.4     -77.4      -8.2      -1.0     -17.4      -4.0
  6 H                -0.4      -0.2       0.6       0.0      -0.5       0.2
  7 H                -0.1      -0.4       0.4      -0.1      -0.3       0.2
  8 H                -0.0      -0.1      -0.1      -0.0      -0.1      -0.0
 10 H                -0.0       0.2      -0.0      -0.0       0.1      -0.0
 11 H                -0.1      -0.1       0.0      -0.2      -0.2       0.2
 12 H                -0.3       0.5      -0.1       0.0      -0.5       0.3

                     54        55        56        57        58        59   
                   0.00000   0.00000   0.00000   0.00000   0.00000   0.00000
                   0.00001   0.00350   0.00189   0.00170   0.00081   0.00029
                  --------  --------  --------  --------  --------  --------
  0 O                -0.5      -1.7      -0.4      -1.1      -0.1      -0.4
  1 C               109.3     -29.2     -17.5     -86.5      -5.0      -5.4
  2 C                -4.2     182.0     149.7     214.8     195.3     114.5
  3 C                 0.1     -43.2     -11.1     -15.1     -54.8      -1.0
  4 N                 0.1      -0.0      -0.8      -0.1      -0.1      -0.1
  5 C                -5.1       5.0      -1.0      -1.5       0.1      -0.2
  6 H                 0.1      -3.7     -17.8       0.6     -14.9      -2.5
  7 H                 0.1      -9.2      -0.8     -10.9     -21.8      -4.9
  8 H                -0.0       0.7      -0.4      -0.2       0.8      -0.1
  9 H                -0.0      -0.5       0.1      -0.1       0.6       0.0
 10 H                 0.0      -0.2      -0.0      -0.0       0.0       0.0
 11 H                 0.0       0.1      -0.0       0.2      -0.0      -0.0
 12 H                 0.1      -0.1      -0.0      -0.0      -0.0      -0.0

                     60        61        62        63        64        65   
                   0.00000   0.00000   0.00000   0.00000   0.00000   0.00000
                   0.00022   0.00010   0.00003   0.00001   0.00378   0.00296
                  --------  --------  --------  --------  --------  --------
  0 O                -0.1       0.0      -0.0      -0.0      -0.1       0.0
  1 C                -1.0      -2.3      -0.9      -0.8       2.6       1.2
  2 C               107.7     112.1     117.2     108.1     -13.4     -41.4
  3 C                -2.1      -4.7      -1.6      -1.7     152.0     150.2
  4 N                 0.0       0.0      -0.1      -0.0      -7.2      -6.4
  5 C                 0.0      -0.4       0.0      -0.0     -12.2      -0.7
  6 H                -2.3      -2.0     -10.8      -2.7       0.1      -0.1
  7 H                -2.3      -2.7      -4.0      -2.7      -0.1       0.8
  8 H                -0.0      -0.0       0.2      -0.0     -11.1      -0.5
  9 H                -0.0      -0.0       0.1      -0.0     -10.1      -2.5
 10 H                 0.0       0.0      -0.0      -0.0      -0.2      -0.5
 11 H                -0.0       0.0       0.0       0.0      -0.3       0.0
 12 H                -0.0      -0.0       0.0      -0.0       0.1      -0.1

                     66        67        68        69        70        71   
                   0.00000   0.00000   0.00000   0.00000   0.00000   0.00000
                   0.00142   0.00079   0.00032   0.00021   0.00009   0.00002
                  --------  --------  --------  --------  --------  --------
  0 O                 0.0       0.0      -0.0       0.0      -0.0      -0.3
  1 C                 0.6       1.4       3.0       0.8       0.1      -0.8
  2 C               -10.1      -9.8     -37.2     -19.7      -2.4      -2.4
  3 C               127.9     136.1     181.7     135.7     118.3     119.5
  4 N                -1.3     -18.2     -21.1      -0.4      -1.6      -1.5
  5 C                -0.1      -3.2      -5.8      -1.0      -0.1       0.2
  6 H                -0.0      -0.3       0.6       0.0       0.1       0.0
  7 H                -0.2      -0.1      -0.1       0.2       0.2       0.0
  8 H                -2.6      -4.6     -13.2      -7.8      -3.0     -10.6
  9 H               -14.1      -1.3      -5.7      -7.7     -11.6      -4.1
 10 H                -0.3      -0.2      -2.2      -0.0      -0.0       0.0
 11 H                -0.0      -0.1      -0.1      -0.0      -0.0      -0.1
 12 H                 0.0       0.1       0.1       0.0      -0.0      -0.0

                     72        73        74        75        76        77   
                   0.00000   0.00000   0.00000   0.00000   0.00000   0.00000
                   0.00001   0.00299   0.00092   0.00045   0.00027   0.00012
                  --------  --------  --------  --------  --------  --------
  0 O                -0.0      -0.2      -0.1      -0.0      -0.0      -0.0
  1 C                -0.5      -0.5       0.1      -0.2       0.4       1.6
  2 C                -2.3       0.0      -0.2      -0.2      -0.2      -0.5
  3 C               115.3      -3.7      -3.2     -18.4      -2.3     -18.1
  4 N                -1.7     109.6     119.6     138.8     112.9     139.3
  5 C                 0.2      -4.1      -4.3     -22.4      -7.1     -19.4
  6 H                 0.0      -0.0      -0.0      -0.0      -0.0      -0.1
  7 H                 0.0      -0.0      -0.0       0.0       0.0      -0.1
  8 H                -9.2      -0.1      -0.1       0.7       0.2       0.2
  9 H                -1.8       0.1       0.1       0.2      -0.2       0.2
 10 H                 0.0      -1.1     -12.1       0.7      -3.9      -2.5
 11 H                -0.0      -0.1      -0.1       0.5       0.3      -0.2
 12 H                 0.0       0.1       0.2       0.3      -0.1      -0.2

                     78        79        80        81        82        83   
                   0.00000   0.00000   0.00000   0.00000   0.00000   0.00000
                   0.00010   0.00005   0.00002   0.00001   0.00474   0.00293
                  --------  --------  --------  --------  --------  --------
  0 O                -0.1      -0.1      -0.0      -0.1      -1.3      -0.6
  1 C                -0.2       0.4      -0.1      -0.1     -31.0     -66.1
  2 C                 0.5      -0.1      -0.0      -0.1       6.3      -2.0
  3 C                -7.5      -4.0      -0.3      -1.6     -17.6      -2.0
  4 N               109.8     112.3     104.2     106.7     -24.3      -1.9
  5 C                -2.0      -4.7      -0.4      -1.6     177.5     178.5
  8 H                -0.1       0.0      -0.0      -0.0      -0.2      -0.0
 10 H                -0.4      -4.0      -3.2      -3.3      -1.5      -0.1
 11 H                 0.0       0.0       0.0      -0.0      -4.1      -0.9
 12 H                 0.0       0.0      -0.0       0.0      -4.1      -5.1

                     84        85        86        87        88        89   
                   0.00000   0.00000   0.00000   0.00000   0.00000   0.00000
                   0.00141   0.00090   0.00063   0.00026   0.00014   0.00005
                  --------  --------  --------  --------  --------  --------
  0 O                -1.0       0.2      -0.2      -0.1      -0.1      -0.1
  1 C               -22.3      -8.8      -8.5      -1.8      -2.6      -1.4
  2 C                -0.5      -0.9      -0.2       0.1      -0.1       0.1
  3 C                -0.4      -0.4      -2.0      -0.0      -0.1      -0.7
  4 N                -9.5      -7.9     -10.3      -2.8      -6.9      -1.1
  5 C               154.1     122.1     161.6     115.4     120.7     114.0
 10 H                -2.6      -0.0      -0.3       0.1      -0.3       0.2
 11 H               -14.0      -1.4     -11.6      -9.2      -7.3      -3.3
 12 H                -3.9      -2.8     -28.6      -1.6      -3.4      -7.7

                     90        91        92        93        94        95   
                   0.00000   0.00000   0.00000   0.00000   0.00000   0.00000
                   0.00001   0.00282   0.00017   0.00013   0.00002   0.00268
                  --------  --------  --------  --------  --------  --------
  0 O                -0.1      -0.0      -0.0      -0.1      -0.1      -0.1
  1 C                -1.3      -0.4      -0.0      -0.2      -0.1      -0.1
  2 C                -0.0     -34.5      -3.1      -4.2      -7.7     -37.6
  3 C                 0.1       0.2      -0.2       0.0      -0.2       0.6
  4 N                -1.7      -0.0      -0.0      -0.1      -0.1      -0.2
  5 C               113.1       0.2      -0.0      -0.1       0.0       0.1
  6 H                -0.0     136.2     104.0     105.4     108.2      -0.5
  7 H                -0.0      -0.4      -0.4      -0.7       0.0     138.6
  8 H                -0.0      -0.9      -0.1      -0.0      -0.0       0.0
  9 H                 0.0      -0.0      -0.1      -0.0      -0.0      -0.9
 10 H                -0.0      -0.3      -0.0      -0.0      -0.0      -0.0
 11 H                -8.6      -0.0      -0.0       0.0      -0.0      -0.0
 12 H                -1.5       0.0      -0.0      -0.0      -0.0      -0.0

                     96        97        98        99       100       101   
                   0.00000   0.00000   0.00000   0.00000   0.00000   0.00000
                   0.00014   0.00010   0.00002   0.00171   0.00014   0.00008
                  --------  --------  --------  --------  --------  --------
  1 C                -0.0      -0.1      -0.2      -0.3      -0.0      -0.0
  2 C                -3.9      -3.8      -7.5       1.1      -0.3      -0.2
  3 C                -0.1      -0.1      -0.4     -40.9      -3.5      -4.0
  4 N                -0.0      -0.0      -0.0       0.7      -0.2      -0.1
  5 C                -0.1      -0.1      -0.0      -0.2      -0.0      -0.0
  6 H                -0.6      -0.6       0.0      -0.9      -0.0      -0.0
  7 H               104.8     104.8     108.3       0.1      -0.0       0.0
  8 H                 0.0      -0.0      -0.0     141.8     104.8     104.9
  9 H                -0.1      -0.0      -0.0      -0.7      -0.5      -0.4
 10 H                -0.0      -0.0      -0.0      -0.6      -0.1      -0.0

                    102       103       104       105       106       107   
                   0.00000   0.00000   0.00000   0.00000   0.00000   0.00000
                   0.00002   0.00321   0.00013   0.00009   0.00002   0.00314
                  --------  --------  --------  --------  --------  --------
  1 C                 0.0       0.2      -0.0      -0.1      -0.0       0.3
  2 C                -0.5       0.1       0.1      -0.3      -0.3      -0.1
  3 C                -6.2     -36.6      -5.3      -2.7      -6.2      -2.7
  4 N                -0.5       0.6      -0.0      -0.2      -0.5      -5.5
  5 C                -0.0      -0.1      -0.0      -0.0      -0.1      -3.6
  6 H                -0.0      -0.0      -0.0      -0.0      -0.0      -0.3
  7 H                -0.0      -0.9      -0.0      -0.0      -0.0      -0.0
  8 H               107.2      -0.6      -0.7      -0.4       0.1      -0.5
  9 H                 0.0     137.9     106.2     103.9     107.0      -0.1
 10 H                -0.0      -0.0      -0.0      -0.0      -0.0     113.0
 11 H                -0.0      -0.0      -0.0      -0.0      -0.0      -0.5
 12 H                -0.0      -0.6      -0.0      -0.0      -0.0      -0.1

                    108       109       110       111       112       113   
                   0.00000   0.00000   0.00000   0.00000   0.00000   0.00000
                   0.00081   0.00030   0.00003   0.00212   0.00017   0.00008
                  --------  --------  --------  --------  --------  --------
  1 C                -0.0      -0.1      -0.1      -0.5      -0.1      -0.1
  2 C                -0.0      -0.0      -0.0       0.3      -0.0      -0.0
  3 C                -0.2      -0.3      -0.1      -0.5      -0.0      -0.0
  4 N                -3.9      -3.2      -5.4       0.6      -0.2      -0.2
  5 C                -0.2      -0.3       0.0     -39.6      -3.5      -4.0
  8 H                -0.1      -0.1      -0.0      -0.0      -0.0      -0.0
 10 H               104.7     104.1     105.6      -0.7      -0.1      -0.0
 11 H                -0.1      -0.1      -0.0     141.0     104.5     105.1
 12 H                -0.0      -0.0      -0.0      -0.5      -0.6      -0.6

                    114       115       116       117       118   
                   0.00000   0.00000   0.00000   0.00000   0.00000
                   0.00002   0.00350   0.00016   0.00012   0.00002
                  --------  --------  --------  --------  --------
  1 C                -0.3      -0.3       0.0      -0.1      -0.4
  2 C                 0.0      -0.0      -0.0      -0.2       0.1
  3 C                -0.0       0.2      -0.1       0.0      -0.2
  4 N                -0.6       0.5      -0.2      -0.0      -0.5
  5 C                -6.8     -36.8      -3.6      -5.1      -6.1
  9 H                -0.0      -0.6      -0.0      -0.0      -0.0
 11 H               107.8      -0.4      -0.6      -0.6      -0.0
 12 H                -0.0     137.5     104.5     106.0     107.3

Storing NBOs: 1123.nbo
                                    *** NBOs were stored ***

                                *** returned from GENNBO program ***

-------
TIMINGS
-------

Total SCF time: 0 days 0 hours 0 min 4 sec 

Total time                  ....       4.258 sec
Sum of individual times     ....       4.663 sec  (109.5%)

Fock matrix formation       ....       2.805 sec  ( 65.9%)
  Coulomb formation         ....       1.499 sec  ( 53.4% of F)
  Split-RI-J                ....       1.493 sec  ( 53.2% of F)
  XC integration            ....       1.302 sec  ( 46.4% of F)
    Basis function eval.    ....       0.418 sec  ( 32.1% of XC)
    Density eval.           ....       0.227 sec  ( 17.4% of XC)
    XC-Functional eval.     ....       0.080 sec  (  6.1% of XC)
    XC-Potential eval.      ....       0.504 sec  ( 38.7% of XC)
Diagonalization             ....       0.015 sec  (  0.4%)
Density matrix formation    ....       0.002 sec  (  0.0%)
Population analysis         ....       0.981 sec  ( 23.0%)
Initial guess               ....       0.307 sec  (  7.2%)
Orbital Transformation      ....       0.000 sec  (  0.0%)
Orbital Orthonormalization  ....       0.000 sec  (  0.0%)
DIIS solution               ....       0.004 sec  (  0.1%)
SOSCF solution              ....       0.009 sec  (  0.2%)
Grid generation             ....       0.541 sec  ( 12.7%)
           ************************************************************
           *              Shut down parallel processing               *
           ************************************************************

-------------------------   --------------------
FINAL SINGLE POINT ENERGY      -286.035888144948
-------------------------   --------------------


                            ***************************************
                            *     ORCA property calculations      *
                            ***************************************

                                    ---------------------
                                    Active property flags
                                    ---------------------
   (+) Dipole Moment


------------------------------------------------------------------------------
                       ORCA ELECTRIC PROPERTIES CALCULATION
------------------------------------------------------------------------------

Dipole Moment Calculation                       ... on
Quadrupole Moment Calculation                   ... off
Polarizability Calculation                      ... off
GBWName                                         ... 1123.gbw
Electron density file                           ... 1123.scfp.tmp

-------------
DIPOLE MOMENT
-------------
                                X             Y             Z
Electronic contribution:     -3.43182      -1.04162       1.51212
Nuclear contribution   :      4.24411       1.31704      -1.46527
                        -----------------------------------------
Total Dipole Moment    :      0.81229       0.27543       0.04685
                        -----------------------------------------
Magnitude (a.u.)       :      0.85899
Magnitude (Debye)      :      2.18339


Timings for individual modules:

Sum of individual times         ...        5.355 sec (=   0.089 min)
GTO integral calculation        ...        0.462 sec (=   0.008 min)   8.6 %
SCF iterations                  ...        4.893 sec (=   0.082 min)  91.4 %
                             ****ORCA TERMINATED NORMALLY****
TOTAL RUN TIME: 0 days 0 hours 0 minutes 5 seconds 756 msec
