
                                 *****************
                                 * O   R   C   A *
                                 *****************

           --- An Ab Initio, DFT and Semiempirical electronic structure package ---

                  #######################################################
                  #                        -***-                        #
                  #  Department of molecular theory and spectroscopy    #
                  #              Directorship: Frank Neese              #
                  # Max Planck Institute for Chemical Energy Conversion #
                  #                  D-45470 Muelheim/Ruhr              #
                  #                       Germany                       #
                  #                                                     #
                  #                  All rights reserved                #
                  #                        -***-                        #
                  #######################################################


                         Program Version 3.0.3 - RELEASE   -


 With contributions from (in alphabetic order):
   Ute Becker             : Parallelization
   Dmytro Bykov           : SCF Hessian
   Dmitry Ganyushin       : Spin-Orbit,Spin-Spin,Magnetic field MRCI
   Andreas Hansen         : Spin unrestricted coupled pair/coupled cluster methods
   Dimitrios Liakos       : Extrapolation schemes; parallel MDCI
   Robert Izsak           : Overlap fitted RIJCOSX, COSX-SCS-MP3
   Christian Kollmar      : KDIIS, OOCD, Brueckner-CCSD(T), CCSD density
   Simone Kossmann        : Meta GGA functionals, TD-DFT gradient, OOMP2, MP2 Hessian
   Taras Petrenko         : DFT Hessian,TD-DFT gradient, ASA and ECA modules, normal mode analysis, Resonance Raman, ABS, FL, XAS/XES, NRVS
   Christoph Reimann      : Effective Core Potentials
   Michael Roemelt        : Restricted open shell CIS
   Christoph Riplinger    : Improved optimizer, TS searches, QM/MM, DLPNO-CCSD
   Barbara Sandhoefer     : DKH picture change effects
   Igor Schapiro          : Molecular dynamics
   Kantharuban Sivalingam : CASSCF convergence, NEVPT2
   Boris Wezisla          : Elementary symmetry handling
   Frank Wennmohs         : Technical directorship


 We gratefully acknowledge several colleagues who have allowed us to
 interface, adapt or use parts of their codes:
   Stefan Grimme, W. Hujo, H. Kruse, T. Risthaus : VdW corrections, initial TS optimization,
                                                   DFT functionals, gCP
   Ed Valeev                                     : LibInt (2-el integral package), F12 methods
   Garnet Chan, S. Sharma, R. Olivares           : DMRG
   Ulf Ekstrom                                   : XCFun DFT Library
   Mihaly Kallay                                 : mrcc  (arbitrary order and MRCC methods)
   Andreas Klamt, Michael Diedenhofen            : otool_cosmo (COSMO solvation model)
   Frank Weinhold                                : gennbo (NPA and NBO analysis)
   Christopher J. Cramer and Donald G. Truhlar   : smd solvation model


 Your calculation uses the libint2 library for the computation of 2-el integrals
 For citations please refer to: http://libint.valeyev.net

 This ORCA versions uses:
   CBLAS   interface :  Fast vector & matrix operations
   LAPACKE interface :  Fast linear algebra routines
   SCALAPACK package :  Parallel linear algebra routines


Your calculation utilizes the basis: Ahlrichs-VDZ
Cite in your paper:
H - Kr: A. Schaefer, H. Horn and R. Ahlrichs, J. Chem. Phys. 97, 2571 (1992).

Your calculation utilizes the basis: Ahlrichs SVPalls1+f
Cite in your paper:
Rb - Xe: A. Schaefer, C. Huber and R. Ahlrichs, J. Chem. Phys. 100, 5829 (1994).

================================================================================
                                        WARNINGS
                       Please study these warnings very carefully!
================================================================================
Now building the actual basis set


INFO   : the flag for use of LIBINT has been found!

================================================================================
                                       INPUT FILE
================================================================================
NAME = 1279.inp
|  1> ! RI PBE def2-SVP def2-SVP/J NBO PAL2
|  2> % maxcore 2000
|  3> % output
|  4>     # printlevel mini
|  5>     print[ P_Basis ] 0
|  6>     print[ P_SCFInfo ] 1
|  7>     print[ P_SCFIterInfo ] 1
|  8>     print[ P_OrbEn ] 0
|  9>     print[ P_Cartesian ] 0
| 10> end
| 11> *xyz 0 1
| 12>  C        0.9197410000     0.0705070000    -0.0803010000 
| 13>  C        2.4136020000     0.1031860000    -0.0362750000 
| 14>  C        3.0971910000     1.2403320000     0.0853880000 
| 15>  C        4.5918360000     1.3324350000     0.0939190000 
| 16>  C        5.2494630000     0.0457760000    -0.3849860000 
| 17>  C        4.5776970000    -1.1627480000     0.2470770000 
| 18>  C        3.1073510000    -1.2258790000    -0.1409990000 
| 19>  H        0.4918830000     1.0731940000    -0.0312450000 
| 20>  H        0.5141460000    -0.5177910000     0.7502140000 
| 21>  H        0.5659770000    -0.4072520000    -1.0009540000 
| 22>  H        2.5455720000     2.1733740000     0.1801360000 
| 23>  H        4.9378570000     1.5758100000     1.1082260000 
| 24>  H        4.9094480000     2.1749170000    -0.5304270000 
| 25>  H        6.3193110000     0.0588230000    -0.1586390000 
| 26>  H        5.1572180000    -0.0230990000    -1.4752660000 
| 27>  H        4.6602070000    -1.0882060000     1.3377680000 
| 28>  H        5.0848990000    -2.0869340000    -0.0441520000 
| 29>  H        2.5809390000    -1.9549330000     0.4866000000 
| 30>  H        3.0024410000    -1.6008120000    -1.1689750000 
| 31> *
| 32> 
| 33>                          ****END OF INPUT****
================================================================================

                       ****************************
                       * Single Point Calculation *
                       ****************************

--------------------------------
INTERNAL COORDINATES (ANGSTROEM)
--------------------------------
 C      0   0   0   0.000000     0.000     0.000
 C      1   0   0   1.494867     0.000     0.000
 C      2   1   0   1.332365   122.281     0.000
 C      3   2   1   1.497504   124.409   181.888
 C      4   3   2   1.522273   112.173    13.872
 C      5   4   3   1.520297   110.500   315.598
 C      2   1   3   1.502887   116.099   180.151
 H      1   2   3   1.091261   111.740     1.682
 H      1   2   3   1.095608   111.061   240.619
 H      1   2   3   1.095904   110.908   122.455
 H      3   2   1   1.088039   118.668     1.524
 H      4   3   2   1.098991   109.459   251.520
 H      4   3   2   1.095656   109.474   136.538
 H      5   4   3   1.093608   110.330   192.676
 H      5   4   3   1.096341   109.245    75.568
 H      6   5   4   1.096345   109.045   300.713
 H      6   5   4   1.093704   110.861   183.520
 H      7   2   1   1.096590   109.055   317.022
 H      7   2   1   1.099234   108.829    71.311

---------------------------
INTERNAL COORDINATES (A.U.)
---------------------------
 C      0   0   0   0.000000     0.000     0.000
 C      1   0   0   2.824889     0.000     0.000
 C      2   1   0   2.517805   122.281     0.000
 C      3   2   1   2.829873   124.409   181.888
 C      4   3   2   2.876679   112.173    13.872
 C      5   4   3   2.872945   110.500   315.598
 C      2   1   3   2.840044   116.099   180.151
 H      1   2   3   2.062184   111.740     1.682
 H      1   2   3   2.070399   111.061   240.619
 H      1   2   3   2.070958   110.908   122.455
 H      3   2   1   2.056095   118.668     1.524
 H      4   3   2   2.076791   109.459   251.520
 H      4   3   2   2.070489   109.474   136.538
 H      5   4   3   2.066619   110.330   192.676
 H      5   4   3   2.071784   109.245    75.568
 H      6   5   4   2.071791   109.045   300.713
 H      6   5   4   2.066801   110.861   183.520
 H      7   2   1   2.072255   109.055   317.022
 H      7   2   1   2.077251   108.829    71.311



           ************************************************************
           *        Program running with 2 parallel MPI-processes     *
           *              working on a common directory               *
           ************************************************************
------------------------------------------------------------------------------
                           ORCA GTO INTEGRAL CALCULATION
                           -- RI-GTO INTEGRALS CHOSEN --
------------------------------------------------------------------------------

                         BASIS SET STATISTICS AND STARTUP INFO

Gaussian basis set:
 # of primitive gaussian shells          ...  144
 # of primitive gaussian functions       ...  252
 # of contracted shells                  ...   78
 # of contracted basis functions         ...  158
 Highest angular momentum                ...    2
 Maximum contraction depth               ...    5
Auxiliary gaussian basis set:
 # of primitive gaussian shells          ...  264
 # of primitive gaussian functions       ...  682
 # of contracted shells                  ...  165
 # of contracted aux-basis functions     ...  475
 Highest angular momentum                ...    4
 Maximum contraction depth               ...    7
Ratio of auxiliary to basis functions    ...  3.01
Integral package used                  ... LIBINT
 One Electron integrals                  ... done
 Ordering auxiliary basis shells         ... done
 Integral threshhold             Thresh  ...  1.000e-10
 Primitive cut-off               TCut    ...  1.000e-11
 Pre-screening matrix                    ... done
 Shell pair data                         ... 
 Ordering of the shell pairs             ... done (   0.000 sec) 2996 of 3081 pairs
 Determination of significant pairs      ... done (   0.000 sec)
 Creation of shell pair data             ... done (   0.000 sec)
 Storage of shell pair data              ... done (   0.001 sec)
 Shell pair data done in (   0.001 sec)
 Computing two index integrals           ... done
 Cholesky decomposition of the V-matrix  ... done


Timings:
 Total evaluation time                   ...   0.167 sec (  0.003 min)
 One electron matrix time                ...   0.025 sec (  0.000 min) = 15.2%
 Schwartz matrix evaluation time         ...   0.075 sec (  0.001 min) = 44.7%
 Two index repulsion integral time       ...   0.004 sec (  0.000 min) =  2.7%
 Cholesky decomposition of V             ...   0.004 sec (  0.000 min) =  2.5%
 Three index repulsion integral time     ...   0.000 sec (  0.000 min) =  0.0%

           ************************************************************
           *              Shut down parallel processing               *
           ************************************************************


           ************************************************************
           *        Program running with 2 parallel MPI-processes     *
           *              working on a common directory               *
           ************************************************************
-------------------------------------------------------------------------------
                                 ORCA SCF
-------------------------------------------------------------------------------

------------
SCF SETTINGS
------------
Hamiltonian:
 Density Functional     Method          .... DFT(GTOs)
 Exchange Functional    Exchange        .... PBE
   PBE kappa parameter  XKappa          ....  0.804000
 Correlation Functional Correlation     .... PBE
 LDA part of GGA corr.  LDAOpt          .... PW91-LDA
 Gradients option       PostSCFGGA      .... off
   NL short-range parameter             ....  6.400000
 RI-approximation to the Coulomb term is turned on
   Number of auxiliary basis functions  .... 475


General Settings:
 Integral files         IntName         .... 1279
 Hartree-Fock type      HFTyp           .... RHF
 Total Charge           Charge          ....    0
 Multiplicity           Mult            ....    1
 Number of Electrons    NEL             ....   54
 Basis Dimension        Dim             ....  158
 Nuclear Repulsion      ENuc            ....    307.8439616949 Eh

Convergence Acceleration:
 DIIS                   CNVDIIS         .... on
   Start iteration      DIISMaxIt       ....    12
   Startup error        DIISStart       ....  0.200000
   # of expansion vecs  DIISMaxEq       ....     5
   Bias factor          DIISBfac        ....   1.050
   Max. coefficient     DIISMaxC        ....  10.000
 Newton-Raphson         CNVNR           .... off
 SOSCF                  CNVSOSCF        .... on
   Start iteration      SOSCFMaxIt      ....   150
   Startup grad/error   SOSCFStart      ....  0.003300
 Level Shifting         CNVShift        .... on
   Level shift para.    LevelShift      ....    0.2500
   Turn off err/grad.   ShiftErr        ....    0.0010
 Zerner damping         CNVZerner       .... off
 Static damping         CNVDamp         .... on
   Fraction old density DampFac         ....    0.7000
   Max. Damping (<1)    DampMax         ....    0.9800
   Min. Damping (>=0)   DampMin         ....    0.0000
   Turn off err/grad.   DampErr         ....    0.1000
 Fernandez-Rico         CNVRico         .... off

SCF Procedure:
 Maximum # iterations   MaxIter         ....   125
 SCF integral mode      SCFMode         .... Direct
   Integral package                     .... LIBINT
 Reset frequeny         DirectResetFreq ....    20
 Integral Threshold     Thresh          ....  1.000e-10 Eh
 Primitive CutOff       TCut            ....  1.000e-11 Eh

Convergence Tolerance:
 Convergence Check Mode ConvCheckMode   .... Total+1el-Energy
 Energy Change          TolE            ....  1.000e-06 Eh
 1-El. energy change                    ....  1.000e-03 Eh
 Orbital Gradient       TolG            ....  5.000e-05
 Orbital Rotation angle TolX            ....  5.000e-05
 DIIS Error             TolErr          ....  1.000e-06


Diagonalization of the overlap matrix:
Smallest eigenvalue                        ... 9.100e-04
Time for diagonalization                   ...    0.015 sec
Threshold for overlap eigenvalues          ... 1.000e-08
Number of eigenvalues below threshold      ... 0
Time for construction of square roots      ...    0.003 sec
Total time needed                          ...    0.018 sec

-------------------
DFT GRID GENERATION
-------------------

General Integration Accuracy     IntAcc      ...  4.340
Radial Grid Type                 RadialGrid  ... Gauss-Chebyshev
Angular Grid (max. acc.)         AngularGrid ... Lebedev-110
Angular grid pruning method      GridPruning ... 3 (G Style)
Weight generation scheme         WeightScheme... Becke
Basis function cutoff            BFCut       ...    1.0000e-10
Integration weight cutoff        WCut        ...    1.0000e-14
Grids for H and He will be reduced by one unit

# of grid points (after initial pruning)     ...  21120 (   0.0 sec)
# of grid points (after weights+screening)   ...  19302 (   0.1 sec)
nearest neighbour list constructed           ...    0.0 sec
Grid point re-assignment to atoms done       ...    0.0 sec
Grid point division into batches done        ...    0.0 sec
Reduced shell lists constructed in    0.1 sec

Total number of grid points                  ...    19302
Total number of batches                      ...      311
Average number of points per batch           ...       62
Average number of grid points per atom       ...     1016
Average number of shells per batch           ...    60.15 (77.12%)
Average number of basis functions per batch  ...   119.80 (75.82%)
Average number of large shells per batch     ...    48.56 (80.73%)
Average number of large basis fcns per batch ...    94.97 (79.27%)
Maximum spatial batch extension              ...  17.48, 19.54, 17.60 au
Average spatial batch extension              ...   1.42,  1.52,  1.47 au

Time for grid setup =    0.168 sec

------------------------------
INITIAL GUESS: MODEL POTENTIAL
------------------------------
Loading Hartree-Fock densities                     ... done
Calculating cut-offs                               ... done
Setting up the integral package                    ... done
Initializing the effective Hamiltonian             ... done
Starting the Coulomb interaction                   ... done (   0.1 sec)
Reading the grid                                   ... done
Mapping shells                                     ... done
Starting the XC term evaluation                    ... done (   0.2 sec)
  promolecular density results
     # of electrons  =     53.996534284
     EX              =    -39.363227221
     EC              =     -1.766528050
     EX+EC           =    -41.129755271
Transforming the Hamiltonian                       ... done (   0.0 sec)
Diagonalizing the Hamiltonian                      ... done (   0.0 sec)
Back transforming the eigenvectors                 ... done (   0.0 sec)
Now organizing SCF variables                       ... done
                      ------------------
                      INITIAL GUESS DONE (   0.5 sec)
                      ------------------
--------------
SCF ITERATIONS
--------------
ITER       Energy         Delta-E        Max-DP      RMS-DP      [F,P]     Damp
               ***  Starting incremental Fock matrix formation  ***
  0   -273.1858338145   0.000000000000 0.07023032  0.00245568  0.1577233 0.7000
  1   -273.2823872495  -0.096553435041 0.04052349  0.00182122  0.0780587 0.7000
                               ***Turning on DIIS***
  2   -273.3164061901  -0.034018940603 0.05010319  0.00294301  0.0243984 0.0000
  3   -273.3636445979  -0.047238407831 0.03057188  0.00132219  0.0487555 0.0000
  4   -273.3808005388  -0.017155940880 0.00787287  0.00042107  0.0104179 0.0000
                      *** Initiating the SOSCF procedure ***
                           *** Shutting down DIIS ***
                      *** Re-Reading the Fockian *** 
                      *** Removing any level shift *** 
ITER      Energy       Delta-E        Grad      Rot      Max-DP    RMS-DP
  5   -273.38163527  -0.0008347333  0.000812  0.000812  0.003257  0.000164
               *** Restarting incremental Fock matrix formation ***
  6   -273.38169729  -0.0000620182  0.000337  0.001721  0.002632  0.000118
  7   -273.38169564   0.0000016457  0.000670  0.001377  0.001614  0.000036
  8   -273.38170414  -0.0000084981  0.000318  0.001001  0.001118  0.000035
  9   -273.38170239   0.0000017555  0.000466  0.000621  0.000666  0.000018
 10   -273.38170495  -0.0000025627  0.000021  0.000056  0.000114  0.000006
 11   -273.38170495  -0.0000000012  0.000021  0.000026  0.000047  0.000002
                 **** Energy Check signals convergence ****
              ***Rediagonalizing the Fockian in SOSCF/NRSCF***

               *****************************************************
               *                     SUCCESS                       *
               *           SCF CONVERGED AFTER  12 CYCLES          *
               *****************************************************

Setting up the final grid:

General Integration Accuracy     IntAcc      ...  4.670
Radial Grid Type                 RadialGrid  ... Gauss-Chebyshev
Angular Grid (max. acc.)         AngularGrid ... Lebedev-302
Angular grid pruning method      GridPruning ... 3 (G Style)
Weight generation scheme         WeightScheme... Becke
Basis function cutoff            BFCut       ...    1.0000e-10
Integration weight cutoff        WCut        ...    1.0000e-14
Grids for H and He will be reduced by one unit

# of grid points (after initial pruning)     ...  84212 (   0.0 sec)
# of grid points (after weights+screening)   ...  75740 (   0.1 sec)
nearest neighbour list constructed           ...    0.0 sec
Grid point re-assignment to atoms done       ...    0.0 sec
Grid point division into batches done        ...    0.2 sec
Reduced shell lists constructed in    0.5 sec

Total number of grid points                  ...    75740
Total number of batches                      ...     1193
Average number of points per batch           ...       63
Average number of grid points per atom       ...     3986
Average number of shells per batch           ...    56.11 (71.93%)
Average number of basis functions per batch  ...   111.06 (70.29%)
Average number of large shells per batch     ...    44.56 (79.42%)
Average number of large basis fcns per batch ...    86.32 (77.72%)
Maximum spatial batch extension              ...  15.64, 15.81, 16.07 au
Average spatial batch extension              ...   0.94,  0.99,  0.99 au

Final grid set up in    0.7 sec
Final integration                            ... done (   0.5 sec)
Change in XC energy                          ...     0.000502917
Integrated number of electrons               ...    53.999876465
Previous integrated no of electrons          ...    54.001521989

----------------
TOTAL SCF ENERGY
----------------

Total Energy       :         -273.38120205 Eh           -7439.08070 eV

Components:
Nuclear Repulsion  :          307.84396169 Eh            8376.86007 eV
Electronic Energy  :         -581.22516375 Eh          -15815.94077 eV

One Electron Energy:         -977.04402436 Eh          -26586.71955 eV
Two Electron Energy:          395.81886061 Eh           10770.77877 eV

Virial components:
Potential Energy   :         -543.72868119 Eh          -14795.60961 eV
Kinetic Energy     :          270.34747914 Eh            7356.52891 eV
Virial Ratio       :            2.01122157


DFT components:
N(Alpha)           :       26.999938232612 electrons
N(Beta)            :       26.999938232612 electrons
N(Total)           :       53.999876465223 electrons
E(X)               :      -40.303990854738 Eh       
E(C)               :       -1.777357828195 Eh       
E(XC)              :      -42.081348682933 Eh       

---------------
SCF CONVERGENCE
---------------

  Last Energy change         ...   -1.8175e-08  Tolerance :   1.0000e-06
  Last MAX-Density change    ...    2.3372e-05  Tolerance :   1.0000e-05
  Last RMS-Density change    ...    1.2875e-06  Tolerance :   1.0000e-06
  Last Orbital Gradient      ...    4.2193e-06  Tolerance :   5.0000e-05
  Last Orbital Rotation      ...    6.6918e-06  Tolerance :   5.0000e-05

             **** THE GBW FILE WAS UPDATED (1279.gbw) ****
             **** DENSITY FILE WAS UPDATED (1279.scfp.tmp) ****
             **** ENERGY FILE WAS UPDATED (1279.en.tmp) ****

                    ********************************
                    * MULLIKEN POPULATION ANALYSIS *
                    ********************************

-----------------------
MULLIKEN ATOMIC CHARGES
-----------------------
   0 C :    0.068060
   1 C :   -0.181993
   2 C :   -0.099823
   3 C :    0.077935
   4 C :   -0.031440
   5 C :   -0.007395
   6 C :    0.071889
   7 H :    0.008590
   8 H :    0.023253
   9 H :    0.020679
  10 H :   -0.029626
  11 H :    0.012857
  12 H :    0.008917
  13 H :    0.008580
  14 H :    0.017891
  15 H :    0.013242
  16 H :    0.000622
  17 H :    0.006033
  18 H :    0.011730
Sum of atomic charges:    0.0000000

--------------------------------
MULLIKEN REDUCED ORBITAL CHARGES
--------------------------------
  0 C s       :     2.938654  s :     2.938654
      pz      :     1.003694  p :     2.967713
      px      :     0.975379
      py      :     0.988640
      dz2     :     0.004281  d :     0.025572
      dxz     :     0.005722
      dyz     :     0.004631
      dx2y2   :     0.005335
      dxy     :     0.005603
  1 C s       :     3.097584  s :     3.097584
      pz      :     1.004918  p :     3.042219
      px      :     1.001730
      py      :     1.035570
      dz2     :     0.002827  d :     0.042191
      dxz     :     0.005976
      dyz     :     0.007705
      dx2y2   :     0.013502
      dxy     :     0.012180
  2 C s       :     3.189909  s :     3.189909
      pz      :     1.041230  p :     2.877369
      px      :     0.918196
      py      :     0.917942
      dz2     :     0.002264  d :     0.032545
      dxz     :     0.005149
      dyz     :     0.004056
      dx2y2   :     0.009609
      dxy     :     0.011468
  3 C s       :     2.921981  s :     2.921981
      pz      :     0.991480  p :     2.965574
      px      :     0.978337
      py      :     0.995756
      dz2     :     0.006508  d :     0.034510
      dxz     :     0.006285
      dyz     :     0.006502
      dx2y2   :     0.008414
      dxy     :     0.006801
  4 C s       :     3.018055  s :     3.018055
      pz      :     1.007816  p :     2.979162
      px      :     0.993400
      py      :     0.977946
      dz2     :     0.010060  d :     0.034223
      dxz     :     0.002378
      dyz     :     0.005989
      dx2y2   :     0.009816
      dxy     :     0.005980
  5 C s       :     3.005396  s :     3.005396
      pz      :     1.003091  p :     2.967893
      px      :     0.986415
      py      :     0.978386
      dz2     :     0.009832  d :     0.034106
      dxz     :     0.004770
      dyz     :     0.003737
      dx2y2   :     0.007552
      dxy     :     0.008215
  6 C s       :     2.932440  s :     2.932440
      pz      :     0.993754  p :     2.961825
      px      :     0.968054
      py      :     1.000017
      dz2     :     0.006626  d :     0.033847
      dxz     :     0.005276
      dyz     :     0.006824
      dx2y2   :     0.006603
      dxy     :     0.008517
  7 H s       :     0.967796  s :     0.967796
      pz      :     0.005474  p :     0.023615
      px      :     0.005674
      py      :     0.012466
  8 H s       :     0.952552  s :     0.952552
      pz      :     0.010448  p :     0.024196
      px      :     0.005828
      py      :     0.007920
  9 H s       :     0.955133  s :     0.955133
      pz      :     0.011424  p :     0.024189
      px      :     0.005594
      py      :     0.007170
 10 H s       :     1.006626  s :     1.006626
      pz      :     0.005389  p :     0.023000
      px      :     0.006200
      py      :     0.011411
 11 H s       :     0.964122  s :     0.964122
      pz      :     0.012183  p :     0.023020
      px      :     0.005530
      py      :     0.005307
 12 H s       :     0.968204  s :     0.968204
      pz      :     0.008161  p :     0.022879
      px      :     0.005318
      py      :     0.009400
 13 H s       :     0.969129  s :     0.969129
      pz      :     0.005341  p :     0.022291
      px      :     0.012699
      py      :     0.004252
 14 H s       :     0.959643  s :     0.959643
      pz      :     0.012972  p :     0.022467
      px      :     0.005150
      py      :     0.004345
 15 H s       :     0.964196  s :     0.964196
      pz      :     0.013052  p :     0.022562
      px      :     0.004535
      py      :     0.004975
 16 H s       :     0.976930  s :     0.976930
      pz      :     0.005646  p :     0.022448
      px      :     0.006195
      py      :     0.010607
 17 H s       :     0.971147  s :     0.971147
      pz      :     0.008202  p :     0.022820
      px      :     0.006168
      py      :     0.008450
 18 H s       :     0.965134  s :     0.965134
      pz      :     0.012416  p :     0.023136
      px      :     0.004616
      py      :     0.006105


                     *******************************
                     * LOEWDIN POPULATION ANALYSIS *
                     *******************************

----------------------
LOEWDIN ATOMIC CHARGES
----------------------
   0 C :   -0.055337
   1 C :   -0.049166
   2 C :   -0.060440
   3 C :   -0.044063
   4 C :   -0.042647
   5 C :   -0.040169
   6 C :   -0.037938
   7 H :    0.028188
   8 H :    0.032143
   9 H :    0.032399
  10 H :    0.018064
  11 H :    0.030528
  12 H :    0.030595
  13 H :    0.024430
  14 H :    0.025101
  15 H :    0.024780
  16 H :    0.023226
  17 H :    0.029418
  18 H :    0.030888

-------------------------------
LOEWDIN REDUCED ORBITAL CHARGES
-------------------------------
  0 C s       :     2.832160  s :     2.832160
      pz      :     1.064524  p :     3.151418
      px      :     1.024249
      py      :     1.062645
      dz2     :     0.013052  d :     0.071759
      dxz     :     0.014072
      dyz     :     0.012968
      dx2y2   :     0.017263
      dxy     :     0.014404
  1 C s       :     2.859448  s :     2.859448
      pz      :     0.973047  p :     3.082706
      px      :     1.034708
      py      :     1.074951
      dz2     :     0.007003  d :     0.107013
      dxz     :     0.011127
      dyz     :     0.015138
      dx2y2   :     0.038708
      dxy     :     0.035037
  2 C s       :     2.866800  s :     2.866800
      pz      :     1.015763  p :     3.105227
      px      :     1.028007
      py      :     1.061457
      dz2     :     0.005879  d :     0.088413
      dxz     :     0.009745
      dyz     :     0.008636
      dx2y2   :     0.030918
      dxy     :     0.033236
  3 C s       :     2.829636  s :     2.829636
      pz      :     1.056784  p :     3.124118
      px      :     1.034650
      py      :     1.032683
      dz2     :     0.017431  d :     0.090309
      dxz     :     0.014949
      dyz     :     0.017241
      dx2y2   :     0.024008
      dxy     :     0.016680
  4 C s       :     2.834190  s :     2.834190
      pz      :     1.056616  p :     3.120507
      px      :     1.041392
      py      :     1.022499
      dz2     :     0.026301  d :     0.087950
      dxz     :     0.005814
      dyz     :     0.014487
      dx2y2   :     0.024550
      dxy     :     0.016799
  5 C s       :     2.833460  s :     2.833460
      pz      :     1.057457  p :     3.118616
      px      :     1.023887
      py      :     1.037272
      dz2     :     0.026047  d :     0.088093
      dxz     :     0.010807
      dyz     :     0.009679
      dx2y2   :     0.020836
      dxy     :     0.020725
  6 C s       :     2.831234  s :     2.831234
      pz      :     1.058682  p :     3.117276
      px      :     1.024923
      py      :     1.033670
      dz2     :     0.018181  d :     0.089428
      dxz     :     0.012032
      dyz     :     0.017769
      dx2y2   :     0.019280
      dxy     :     0.022166
  7 H s       :     0.905604  s :     0.905604
      pz      :     0.012915  p :     0.066208
      px      :     0.017126
      py      :     0.036167
  8 H s       :     0.901469  s :     0.901469
      pz      :     0.028657  p :     0.066388
      px      :     0.017017
      py      :     0.020714
  9 H s       :     0.901268  s :     0.901268
      pz      :     0.032108  p :     0.066333
      px      :     0.016214
      py      :     0.018012
 10 H s       :     0.912086  s :     0.912086
      pz      :     0.016612  p :     0.069850
      px      :     0.020468
      py      :     0.032770
 11 H s       :     0.902633  s :     0.902633
      pz      :     0.035991  p :     0.066839
      px      :     0.016329
      py      :     0.014520
 12 H s       :     0.902425  s :     0.902425
      pz      :     0.022074  p :     0.066980
      px      :     0.015806
      py      :     0.029100
 13 H s       :     0.908453  s :     0.908453
      pz      :     0.014407  p :     0.067118
      px      :     0.038590
      py      :     0.014121
 14 H s       :     0.907961  s :     0.907961
      pz      :     0.039710  p :     0.066938
      px      :     0.013255
      py      :     0.013973
 15 H s       :     0.908467  s :     0.908467
      pz      :     0.039725  p :     0.066753
      px      :     0.013678
      py      :     0.013350
 16 H s       :     0.909769  s :     0.909769
      pz      :     0.015119  p :     0.067006
      px      :     0.019516
      py      :     0.032371
 17 H s       :     0.903297  s :     0.903297
      pz      :     0.022179  p :     0.067284
      px      :     0.019713
      py      :     0.025392
 18 H s       :     0.901749  s :     0.901749
      pz      :     0.036597  p :     0.067362
      px      :     0.013676
      py      :     0.017090


                      *****************************
                      * MAYER POPULATION ANALYSIS *
                      *****************************

  NA   - Mulliken gross atomic population
  ZA   - Total nuclear charge
  QA   - Mulliken gross atomic charge
  VA   - Mayer's total valence
  BVA  - Mayer's bonded valence
  FA   - Mayer's free valence

  ATOM       NA         ZA         QA         VA         BVA        FA
  0 C      5.9319     6.0000     0.0681     3.9402     3.9402     0.0000
  1 C      6.1820     6.0000    -0.1820     4.2142     4.2142     0.0000
  2 C      6.0998     6.0000    -0.0998     4.0161     4.0161    -0.0000
  3 C      5.9221     6.0000     0.0779     3.9961     3.9961    -0.0000
  4 C      6.0314     6.0000    -0.0314     4.1263     4.1263    -0.0000
  5 C      6.0074     6.0000    -0.0074     4.1243     4.1243     0.0000
  6 C      5.9281     6.0000     0.0719     4.0091     4.0091     0.0000
  7 H      0.9914     1.0000     0.0086     0.9989     0.9989     0.0000
  8 H      0.9767     1.0000     0.0233     0.9894     0.9894    -0.0000
  9 H      0.9793     1.0000     0.0207     0.9897     0.9897    -0.0000
 10 H      1.0296     1.0000    -0.0296     0.9915     0.9915    -0.0000
 11 H      0.9871     1.0000     0.0129     0.9801     0.9801     0.0000
 12 H      0.9911     1.0000     0.0089     0.9779     0.9779    -0.0000
 13 H      0.9914     1.0000     0.0086     0.9731     0.9731    -0.0000
 14 H      0.9821     1.0000     0.0179     0.9762     0.9762    -0.0000
 15 H      0.9868     1.0000     0.0132     0.9769     0.9769     0.0000
 16 H      0.9994     1.0000     0.0006     0.9733     0.9733     0.0000
 17 H      0.9940     1.0000     0.0060     0.9838     0.9838    -0.0000
 18 H      0.9883     1.0000     0.0117     0.9822     0.9822     0.0000

  Mayer bond orders larger than 0.1
B(  0-C ,  1-C ) :   1.0962 B(  0-C ,  7-H ) :   0.9519 B(  0-C ,  8-H ) :   0.9429 
B(  0-C ,  9-H ) :   0.9470 B(  1-C ,  2-C ) :   1.8990 B(  1-C ,  6-C ) :   1.0377 
B(  2-C ,  3-C ) :   1.0399 B(  2-C , 10-H ) :   0.9444 B(  3-C ,  4-C ) :   1.1072 
B(  3-C , 11-H ) :   0.9060 B(  3-C , 12-H ) :   0.9162 B(  4-C ,  5-C ) :   1.0915 
B(  4-C , 13-H ) :   0.9272 B(  4-C , 14-H ) :   0.9384 B(  5-C ,  6-C ) :   1.1014 
B(  5-C , 15-H ) :   0.9369 B(  5-C , 16-H ) :   0.9257 B(  6-C , 17-H ) :   0.9141 
B(  6-C , 18-H ) :   0.9036 


 *********************************** NBO 6.0 ***********************************
             N A T U R A L   A T O M I C   O R B I T A L   A N D
          N A T U R A L   B O N D   O R B I T A L   A N A L Y S I S
 ***************************** Kiya KiyaLu (100703) ****************************
  (c) Copyright 1996-2015 Board of Regents of the University of Wisconsin System
      on behalf of the Theoretical Chemistry Institute.  All rights reserved.

          Cite this program as:

          NBO 6.0.  E. D. Glendening, J. K. Badenhoop, A. E. Reed,
          J. E. Carpenter, J. A. Bohmann, C. M. Morales, C. R. Landis,
          and F. Weinhold (Theoretical Chemistry Institute, University
          of Wisconsin, Madison, WI, 2013); http://nbo6.chem.wisc.edu/

       /NPA    / : Natural Population Analysis
       /NBO    / : Natural Bond Orbital Analysis
       /AONBO  / : Write the AO to NBO transformation to lfn77
       /FILE   / : Set to 1279

 Filename set to 1279

 Job title:  *** NBO job generated by orca_scf

 Warning: MOs are non-orthogonal; program will continue

 Warning: -3632.96997 electrons reside outside the linearly independent MO space


 NATURAL POPULATIONS:  Natural atomic orbital occupancies

  NAO Atom No lang   Type(AO)    Occupancy      Energy
 -------------------------------------------------------
   1    C  1  s      Cor( 1s)     1.99913      -9.76502
   2    C  1  s      Val( 2s)     1.07786      -0.20109
   3    C  1  s      Ryd( 3s)     0.00050       0.86215
   4    C  1  px     Val( 2p)     1.10392      -0.05672
   5    C  1  px     Ryd( 3p)     0.00119       0.47993
   6    C  1  py     Val( 2p)     1.24005      -0.06294
   7    C  1  py     Ryd( 3p)     0.00354       0.61839
   8    C  1  pz     Val( 2p)     1.22599      -0.06411
   9    C  1  pz     Ryd( 3p)     0.00107       0.56043
  10    C  1  dxy    Ryd( 3d)     0.00044       2.24284
  11    C  1  dxz    Ryd( 3d)     0.00050       2.10201
  12    C  1  dyz    Ryd( 3d)     0.00049       2.25562
  13    C  1  dx2y2  Ryd( 3d)     0.00049       2.26756
  14    C  1  dz2    Ryd( 3d)     0.00041       2.25644

  15    C  2  s      Cor( 1s)     1.99880      -9.75592
  16    C  2  s      Val( 2s)     0.85678      -0.09682
  17    C  2  s      Ryd( 3s)     0.00115       0.53333
  18    C  2  px     Val( 2p)     1.06923      -0.04319
  19    C  2  px     Ryd( 3p)     0.00434       0.95882
  20    C  2  py     Val( 2p)     1.08892      -0.03280
  21    C  2  py     Ryd( 3p)     0.00304       0.81010
  22    C  2  pz     Val( 2p)     1.00648      -0.08558
  23    C  2  pz     Ryd( 3p)     0.00206       0.61641
  24    C  2  dxy    Ryd( 3d)     0.00086       2.35822
  25    C  2  dxz    Ryd( 3d)     0.00055       1.86831
  26    C  2  dyz    Ryd( 3d)     0.00081       1.93095
  27    C  2  dx2y2  Ryd( 3d)     0.00085       2.33881
  28    C  2  dz2    Ryd( 3d)     0.00049       2.11149

  29    C  3  s      Cor( 1s)     1.99875      -9.74447
  30    C  3  s      Val( 2s)     0.92861      -0.10873
  31    C  3  s      Ryd( 3s)     0.00141       0.55512
  32    C  3  px     Val( 2p)     1.07692      -0.02556
  33    C  3  px     Ryd( 3p)     0.00439       0.80061
  34    C  3  py     Val( 2p)     1.17538      -0.02800
  35    C  3  py     Ryd( 3p)     0.00434       0.78868
  36    C  3  pz     Val( 2p)     1.03577      -0.08998
  37    C  3  pz     Ryd( 3p)     0.00203       0.54672
  38    C  3  dxy    Ryd( 3d)     0.00085       2.41139
  39    C  3  dxz    Ryd( 3d)     0.00044       1.89613
  40    C  3  dyz    Ryd( 3d)     0.00054       1.91597
  41    C  3  dx2y2  Ryd( 3d)     0.00064       2.32969
  42    C  3  dz2    Ryd( 3d)     0.00051       2.12913

  43    C  4  s      Cor( 1s)     1.99906      -9.76690
  44    C  4  s      Val( 2s)     1.00699      -0.17922
  45    C  4  s      Ryd( 3s)     0.00063       0.92483
  46    C  4  px     Val( 2p)     1.08556      -0.05805
  47    C  4  px     Ryd( 3p)     0.00164       0.54679
  48    C  4  py     Val( 2p)     1.14498      -0.06095
  49    C  4  py     Ryd( 3p)     0.00369       0.61928
  50    C  4  pz     Val( 2p)     1.21715      -0.06162
  51    C  4  pz     Ryd( 3p)     0.00240       0.70078
  52    C  4  dxy    Ryd( 3d)     0.00053       2.13819
  53    C  4  dxz    Ryd( 3d)     0.00060       2.10307
  54    C  4  dyz    Ryd( 3d)     0.00059       2.26041
  55    C  4  dx2y2  Ryd( 3d)     0.00068       2.24884
  56    C  4  dz2    Ryd( 3d)     0.00061       2.26637

  57    C  5  s      Cor( 1s)     1.99910      -9.76636
  58    C  5  s      Val( 2s)     1.00614      -0.18237
  59    C  5  s      Ryd( 3s)     0.00081       0.89850
  60    C  5  px     Val( 2p)     1.19084      -0.06000
  61    C  5  px     Ryd( 3p)     0.00483       0.73097
  62    C  5  py     Val( 2p)     1.04407      -0.06233
  63    C  5  py     Ryd( 3p)     0.00187       0.53452
  64    C  5  pz     Val( 2p)     1.19189      -0.05908
  65    C  5  pz     Ryd( 3p)     0.00205       0.64706
  66    C  5  dxy    Ryd( 3d)     0.00047       2.12055
  67    C  5  dxz    Ryd( 3d)     0.00026       2.08648
  68    C  5  dyz    Ryd( 3d)     0.00051       2.08977
  69    C  5  dx2y2  Ryd( 3d)     0.00080       2.28960
  70    C  5  dz2    Ryd( 3d)     0.00084       2.44038

  71    C  6  s      Cor( 1s)     1.99910      -9.76645
  72    C  6  s      Val( 2s)     1.00412      -0.18165
  73    C  6  s      Ryd( 3s)     0.00080       0.90736
  74    C  6  px     Val( 2p)     1.07187      -0.06046
  75    C  6  px     Ryd( 3p)     0.00220       0.56542
  76    C  6  py     Val( 2p)     1.15614      -0.06168
  77    C  6  py     Ryd( 3p)     0.00447       0.68990
  78    C  6  pz     Val( 2p)     1.19651      -0.05943
  79    C  6  pz     Ryd( 3p)     0.00236       0.66880
  80    C  6  dxy    Ryd( 3d)     0.00067       2.20340
  81    C  6  dxz    Ryd( 3d)     0.00041       2.06663
  82    C  6  dyz    Ryd( 3d)     0.00037       2.11813
  83    C  6  dx2y2  Ryd( 3d)     0.00061       2.19322
  84    C  6  dz2    Ryd( 3d)     0.00083       2.43581

  85    C  7  s      Cor( 1s)     1.99903      -9.76500
  86    C  7  s      Val( 2s)     1.00099      -0.17703
  87    C  7  s      Ryd( 3s)     0.00120       0.94008
  88    C  7  px     Val( 2p)     1.09172      -0.06457
  89    C  7  px     Ryd( 3p)     0.00304       0.63986
  90    C  7  py     Val( 2p)     1.13944      -0.05930
  91    C  7  py     Ryd( 3p)     0.00256       0.55877
  92    C  7  pz     Val( 2p)     1.22284      -0.06476
  93    C  7  pz     Ryd( 3p)     0.00255       0.72459
  94    C  7  dxy    Ryd( 3d)     0.00069       2.20253
  95    C  7  dxz    Ryd( 3d)     0.00050       2.09891
  96    C  7  dyz    Ryd( 3d)     0.00062       2.22977
  97    C  7  dx2y2  Ryd( 3d)     0.00052       2.19961
  98    C  7  dz2    Ryd( 3d)     0.00062       2.28920

  99    H  8  s      Val( 1s)     0.76996       0.07423
 100    H  8  s      Ryd( 2s)     0.00159       0.34958
 101    H  8  px     Ryd( 2p)     0.00021       1.80360
 102    H  8  py     Ryd( 2p)     0.00070       2.21443
 103    H  8  pz     Ryd( 2p)     0.00015       1.70676

 104    H  9  s      Val( 1s)     0.76953       0.06666
 105    H  9  s      Ryd( 2s)     0.00204       0.34814
 106    H  9  px     Ryd( 2p)     0.00022       1.78693
 107    H  9  py     Ryd( 2p)     0.00034       1.91160
 108    H  9  pz     Ryd( 2p)     0.00054       2.07158

 109    H 10  s      Val( 1s)     0.76918       0.06593
 110    H 10  s      Ryd( 2s)     0.00206       0.34507
 111    H 10  px     Ryd( 2p)     0.00021       1.75416
 112    H 10  py     Ryd( 2p)     0.00028       1.85361
 113    H 10  pz     Ryd( 2p)     0.00062       2.13860

 114    H 11  s      Val( 1s)     0.78144       0.08239
 115    H 11  s      Ryd( 2s)     0.00227       0.34435
 116    H 11  px     Ryd( 2p)     0.00028       2.02733
 117    H 11  py     Ryd( 2p)     0.00067       2.22691
 118    H 11  pz     Ryd( 2p)     0.00022       1.64171

 119    H 12  s      Val( 1s)     0.76488       0.07436
 120    H 12  s      Ryd( 2s)     0.00296       0.34781
 121    H 12  px     Ryd( 2p)     0.00021       1.78743
 122    H 12  py     Ryd( 2p)     0.00014       1.83960
 123    H 12  pz     Ryd( 2p)     0.00078       2.20858

 124    H 13  s      Val( 1s)     0.75920       0.08063
 125    H 13  s      Ryd( 2s)     0.00232       0.33989
 126    H 13  px     Ryd( 2p)     0.00019       1.78647
 127    H 13  py     Ryd( 2p)     0.00050       2.08118
 128    H 13  pz     Ryd( 2p)     0.00038       1.96268

 129    H 14  s      Val( 1s)     0.76515       0.08519
 130    H 14  s      Ryd( 2s)     0.00239       0.33466
 131    H 14  px     Ryd( 2p)     0.00085       2.26916
 132    H 14  py     Ryd( 2p)     0.00009       1.72704
 133    H 14  pz     Ryd( 2p)     0.00014       1.78608

 134    H 15  s      Val( 1s)     0.77514       0.07884
 135    H 15  s      Ryd( 2s)     0.00311       0.35226
 136    H 15  px     Ryd( 2p)     0.00011       1.78143
 137    H 15  py     Ryd( 2p)     0.00009       1.71043
 138    H 15  pz     Ryd( 2p)     0.00092       2.26923

 139    H 16  s      Val( 1s)     0.77522       0.07829
 140    H 16  s      Ryd( 2s)     0.00309       0.35166
 141    H 16  px     Ryd( 2p)     0.00010       1.72657
 142    H 16  py     Ryd( 2p)     0.00010       1.77364
 143    H 16  pz     Ryd( 2p)     0.00093       2.26821

 144    H 17  s      Val( 1s)     0.76582       0.08348
 145    H 17  s      Ryd( 2s)     0.00238       0.33577
 146    H 17  px     Ryd( 2p)     0.00025       1.86344
 147    H 17  py     Ryd( 2p)     0.00062       2.14000
 148    H 17  pz     Ryd( 2p)     0.00017       1.81144

 149    H 18  s      Val( 1s)     0.76077       0.07654
 150    H 18  s      Ryd( 2s)     0.00269       0.35336
 151    H 18  px     Ryd( 2p)     0.00024       1.87440
 152    H 18  py     Ryd( 2p)     0.00043       2.00162
 153    H 18  pz     Ryd( 2p)     0.00038       1.96534

 154    H 19  s      Val( 1s)     0.76352       0.07175
 155    H 19  s      Ryd( 2s)     0.00317       0.35229
 156    H 19  px     Ryd( 2p)     0.00010       1.79859
 157    H 19  py     Ryd( 2p)     0.00022       1.83500
 158    H 19  pz     Ryd( 2p)     0.00081       2.21934

   1 low occupancy (<1.9990e) core orbital  found on  C  2
   1 low occupancy (<1.9990e) core orbital  found on  C  3


 Summary of Natural Population Analysis:

                                     Natural Population
             Natural    ---------------------------------------------
  Atom No    Charge        Core      Valence    Rydberg      Total
 --------------------------------------------------------------------
    C  1   -0.65560      1.99913     4.64783    0.00863     6.65560
    C  2   -0.03435      1.99880     4.02141    0.01414     6.03435
    C  3   -0.23059      1.99875     4.21668    0.01517     6.23059
    C  4   -0.46511      1.99906     4.45468    0.01137     6.46511
    C  5   -0.44449      1.99910     4.43293    0.01246     6.44449
    C  6   -0.44047      1.99910     4.42865    0.01272     6.44047
    C  7   -0.46631      1.99903     4.45498    0.01229     6.46631
    H  8    0.22739      0.00000     0.76996    0.00265     0.77261
    H  9    0.22733      0.00000     0.76953    0.00314     0.77267
    H 10    0.22765      0.00000     0.76918    0.00317     0.77235
    H 11    0.21513      0.00000     0.78144    0.00343     0.78487
    H 12    0.23103      0.00000     0.76488    0.00409     0.76897
    H 13    0.23741      0.00000     0.75920    0.00339     0.76259
    H 14    0.23138      0.00000     0.76515    0.00347     0.76862
    H 15    0.22062      0.00000     0.77514    0.00424     0.77938
    H 16    0.22056      0.00000     0.77522    0.00422     0.77944
    H 17    0.23074      0.00000     0.76582    0.00344     0.76926
    H 18    0.23549      0.00000     0.76077    0.00374     0.76451
    H 19    0.23219      0.00000     0.76352    0.00429     0.76781
 ====================================================================
 * Total *  0.00000     13.99298    39.87698    0.13004    54.00000

                                 Natural Population
 ---------------------------------------------------------
   Core                      13.99298 ( 99.9498% of   14)
   Valence                   39.87698 ( 99.6925% of   40)
   Natural Minimal Basis     53.86996 ( 99.7592% of   54)
   Natural Rydberg Basis      0.13004 (  0.2408% of   54)
 ---------------------------------------------------------

    Atom No         Natural Electron Configuration
 ----------------------------------------------------------------------------
      C  1      [core]2s( 1.08)2p( 3.57)3p( 0.01)
      C  2      [core]2s( 0.86)2p( 3.16)3p( 0.01)
      C  3      [core]2s( 0.93)2p( 3.29)3p( 0.01)
      C  4      [core]2s( 1.01)2p( 3.45)3p( 0.01)
      C  5      [core]2s( 1.01)2p( 3.43)3p( 0.01)
      C  6      [core]2s( 1.00)2p( 3.42)3p( 0.01)
      C  7      [core]2s( 1.00)2p( 3.45)3p( 0.01)
      H  8            1s( 0.77)
      H  9            1s( 0.77)
      H 10            1s( 0.77)
      H 11            1s( 0.78)
      H 12            1s( 0.76)
      H 13            1s( 0.76)
      H 14            1s( 0.77)
      H 15            1s( 0.78)
      H 16            1s( 0.78)
      H 17            1s( 0.77)
      H 18            1s( 0.76)
      H 19            1s( 0.76)


 NATURAL BOND ORBITAL ANALYSIS:

                            Occupancies       Lewis Structure    Low   High
         Max    Occ     -------------------  -----------------   occ   occ
  Cycle  Ctr   Thresh    Lewis   non-Lewis     CR  BD  nC  LP    (L)   (NL)
 ============================================================================
    1     2     1.90    53.44517   0.55483      7  20   0   0     0      1
 ----------------------------------------------------------------------------

 Structure accepted: No low occupancy Lewis orbitals

 -------------------------------------------------------
   Core                     13.99298 ( 99.950% of  14)
   Valence Lewis            39.45219 ( 98.630% of  40)
  ==================      =============================
   Total Lewis              53.44517 ( 98.973% of  54)
  -----------------------------------------------------
   Valence non-Lewis         0.45726 (  0.847% of  54)
   Rydberg non-Lewis         0.09757 (  0.181% of  54)
  ==================      =============================
   Total non-Lewis           0.55483 (  1.027% of  54)
 -------------------------------------------------------


     (Occupancy)   Bond orbital / Coefficients / Hybrids
 ------------------ Lewis ------------------------------------------------------
   1. (1.99913) CR ( 1) C  1            s(100.00%)
                                         1.0000  0.0000  0.0000  0.0000  0.0000
                                         0.0000  0.0000  0.0000  0.0000  0.0000
                                         0.0000  0.0000  0.0000  0.0000
   2. (1.99880) CR ( 1) C  2            s(100.00%)
                                         1.0000  0.0000  0.0000  0.0000  0.0000
                                         0.0000  0.0000  0.0000  0.0000  0.0000
                                         0.0000  0.0000  0.0000  0.0000
   3. (1.99875) CR ( 1) C  3            s(100.00%)
                                         1.0000  0.0000  0.0000  0.0000  0.0000
                                         0.0000  0.0000  0.0000  0.0000  0.0000
                                         0.0000  0.0000  0.0000  0.0000
   4. (1.99906) CR ( 1) C  4            s(100.00%)
                                         1.0000  0.0000  0.0000  0.0000  0.0000
                                         0.0000  0.0000  0.0000  0.0000  0.0000
                                         0.0000  0.0000  0.0000  0.0000
   5. (1.99910) CR ( 1) C  5            s(100.00%)
                                         1.0000  0.0000  0.0000  0.0000  0.0000
                                         0.0000  0.0000  0.0000  0.0000  0.0000
                                         0.0000  0.0000  0.0000  0.0000
   6. (1.99910) CR ( 1) C  6            s(100.00%)
                                         1.0000  0.0000  0.0000  0.0000  0.0000
                                         0.0000  0.0000  0.0000  0.0000  0.0000
                                         0.0000  0.0000  0.0000  0.0000
   7. (1.99903) CR ( 1) C  7            s(100.00%)
                                         1.0000  0.0000  0.0000  0.0000  0.0000
                                         0.0000  0.0000  0.0000  0.0000  0.0000
                                         0.0000  0.0000  0.0000  0.0000
   8. (1.97585) BD ( 1) C  1- C  2
               ( 49.57%)   0.7041* C  1 s( 31.43%)p 2.18( 68.54%)d 0.00(  0.03%)
                                         0.0000  0.5606 -0.0031  0.8272 -0.0045
                                         0.0208  0.0024  0.0256 -0.0003 -0.0001
                                         0.0007  0.0000  0.0161 -0.0089
               ( 50.43%)   0.7101* C  2 s( 30.99%)p 2.23( 68.98%)d 0.00(  0.03%)
                                         0.0000  0.5567  0.0012 -0.8301  0.0039
                                        -0.0137  0.0036 -0.0208  0.0006  0.0003
                                         0.0012  0.0008  0.0143 -0.0119
   9. (1.98784) BD ( 1) C  1- H  8
               ( 61.43%)   0.7838* C  1 s( 23.57%)p 3.24( 76.39%)d 0.00(  0.03%)
                                         0.0000  0.4855  0.0031 -0.3502 -0.0127
                                         0.7996 -0.0100  0.0397 -0.0014 -0.0110
                                        -0.0005  0.0012 -0.0113 -0.0089
               ( 38.57%)   0.6211* H  8 s( 99.90%)p 0.00(  0.10%)
                                         0.9995 -0.0011  0.0123 -0.0283 -0.0014
  10. (1.97628) BD ( 1) C  1- H  9
               ( 61.41%)   0.7836* C  1 s( 22.50%)p 3.44( 77.47%)d 0.00(  0.04%)
                                         0.0000  0.4743  0.0005 -0.3304 -0.0144
                                        -0.4659  0.0065  0.6694 -0.0007  0.0064
                                        -0.0078 -0.0146 -0.0035  0.0071
               ( 38.59%)   0.6212* H  9 s( 99.91%)p 0.00(  0.09%)
                                         0.9995 -0.0028  0.0120  0.0152 -0.0234
  11. (1.97593) BD ( 1) C  1- H 10
               ( 61.41%)   0.7836* C  1 s( 22.45%)p 3.45( 77.51%)d 0.00(  0.04%)
                                         0.0000  0.4738  0.0004 -0.2886 -0.0146
                                        -0.3774  0.0065 -0.7410  0.0010  0.0044
                                         0.0072  0.0133 -0.0021  0.0109
               ( 38.59%)   0.6212* H 10 s( 99.91%)p 0.00(  0.09%)
                                         0.9995 -0.0028  0.0109  0.0121  0.0260
  12. (1.97523) BD ( 1) C  2- C  3
               ( 50.71%)   0.7121* C  2 s( 38.14%)p 1.62( 61.82%)d 0.00(  0.04%)
                                         0.0000  0.6176  0.0066  0.4012 -0.0070
                                         0.6712  0.0213  0.0783  0.0008  0.0140
                                         0.0016  0.0031 -0.0068 -0.0132
               ( 49.29%)   0.7020* C  3 s( 39.80%)p 1.51( 60.15%)d 0.00(  0.06%)
                                         0.0000  0.6308  0.0077 -0.3983 -0.0278
                                        -0.6616  0.0044 -0.0652  0.0017  0.0159
                                         0.0016  0.0036 -0.0094 -0.0150
  13. (1.93392) BD ( 2) C  2- C  3
               ( 49.21%)   0.7015* C  2 s(  0.00%)p 1.00( 99.94%)d 0.00(  0.06%)
                                         0.0000 -0.0017 -0.0036 -0.0244 -0.0013
                                        -0.0998 -0.0010  0.9944 -0.0081 -0.0018
                                         0.0131  0.0206  0.0020  0.0040
               ( 50.79%)   0.7127* C  3 s(  0.00%)p 1.00( 99.93%)d 0.00(  0.06%)
                                         0.0000 -0.0044  0.0051 -0.0057 -0.0015
                                        -0.0987 -0.0004  0.9947 -0.0117  0.0014
                                        -0.0105 -0.0219 -0.0019 -0.0042
  14. (1.96825) BD ( 1) C  2- C  7
               ( 49.77%)   0.7055* C  2 s( 30.79%)p 2.25( 69.17%)d 0.00(  0.04%)
                                         0.0000  0.5549 -0.0075  0.3857 -0.0205
                                        -0.7338 -0.0017 -0.0633 -0.0024 -0.0119
                                        -0.0008  0.0025 -0.0077 -0.0128
               ( 50.23%)   0.7087* C  7 s( 28.97%)p 2.45( 70.99%)d 0.00(  0.04%)
                                         0.0000  0.5383 -0.0028 -0.3874 -0.0127
                                         0.7459 -0.0074  0.0573 -0.0009 -0.0129
                                        -0.0009  0.0023 -0.0096 -0.0098
  15. (1.97610) BD ( 1) C  3- C  4
               ( 49.40%)   0.7029* C  3 s( 33.14%)p 2.02( 66.82%)d 0.00(  0.04%)
                                         0.0000  0.5756  0.0058  0.8142 -0.0022
                                         0.0579  0.0418  0.0130  0.0050  0.0003
                                         0.0000  0.0008  0.0154 -0.0134
               ( 50.60%)   0.7113* C  4 s( 28.59%)p 2.50( 71.38%)d 0.00(  0.04%)
                                         0.0000  0.5347  0.0014 -0.8432 -0.0047
                                        -0.0460  0.0246 -0.0011  0.0033  0.0024
                                         0.0003  0.0003  0.0159 -0.0100
  16. (1.97533) BD ( 1) C  3- H 11
               ( 61.01%)   0.7811* C  3 s( 26.93%)p 2.71( 73.03%)d 0.00(  0.03%)
                                         0.0000  0.5188 -0.0110 -0.4206  0.0072
                                         0.7403  0.0003  0.0734  0.0006 -0.0136
                                        -0.0013  0.0026 -0.0069 -0.0099
               ( 38.99%)   0.6244* H 11 s( 99.90%)p 0.00(  0.10%)
                                         0.9995 -0.0033  0.0162 -0.0265 -0.0026
  17. (1.97804) BD ( 1) C  4- C  5
               ( 50.21%)   0.7086* C  4 s( 28.56%)p 2.50( 71.40%)d 0.00(  0.03%)
                                         0.0000  0.5345  0.0009  0.3779  0.0240
                                        -0.7073  0.0152 -0.2648 -0.0072 -0.0100
                                        -0.0036  0.0091 -0.0091 -0.0072
               ( 49.79%)   0.7056* C  5 s( 27.83%)p 2.59( 72.13%)d 0.00(  0.04%)
                                         0.0000  0.5276  0.0023 -0.3529  0.0242
                                         0.7262  0.0201  0.2615 -0.0031 -0.0124
                                        -0.0063  0.0088 -0.0073 -0.0065
  18. (1.96366) BD ( 1) C  4- H 12
               ( 61.72%)   0.7856* C  4 s( 21.20%)p 3.72( 78.77%)d 0.00(  0.03%)
                                         0.0000  0.4604 -0.0031  0.2806  0.0047
                                         0.1912  0.0127  0.8199 -0.0058  0.0018
                                         0.0078  0.0062  0.0003  0.0156
               ( 38.28%)   0.6187* H 12 s( 99.89%)p 0.00(  0.11%)
                                         0.9995 -0.0052 -0.0106 -0.0074 -0.0300
  19. (1.96826) BD ( 1) C  4- H 13
               ( 61.92%)   0.7869* C  4 s( 21.57%)p 3.64( 78.40%)d 0.00(  0.04%)
                                         0.0000  0.4644  0.0023  0.2580  0.0024
                                         0.6784 -0.0021 -0.5071  0.0120  0.0067
                                        -0.0044 -0.0149 -0.0087  0.0001
               ( 38.08%)   0.6171* H 13 s( 99.90%)p 0.00(  0.10%)
                                         0.9995 -0.0032 -0.0096 -0.0239  0.0180
  20. (1.97992) BD ( 1) C  5- C  6
               ( 49.95%)   0.7068* C  5 s( 28.04%)p 2.57( 71.92%)d 0.00(  0.04%)
                                         0.0000  0.5295  0.0000 -0.3558  0.0274
                                        -0.6843 -0.0182  0.3512  0.0000  0.0115
                                        -0.0077 -0.0106 -0.0062 -0.0043
               ( 50.05%)   0.7074* C  6 s( 28.09%)p 2.56( 71.88%)d 0.00(  0.04%)
                                         0.0000  0.5300 -0.0001  0.3927  0.0298
                                         0.6624 -0.0145 -0.3531 -0.0023  0.0105
                                        -0.0050 -0.0120 -0.0076 -0.0045
  21. (1.97785) BD ( 1) C  5- H 14
               ( 61.72%)   0.7856* C  5 s( 22.37%)p 3.47( 77.60%)d 0.00(  0.03%)
                                         0.0000  0.4729  0.0054  0.8618 -0.0072
                                         0.0104 -0.0017  0.1812 -0.0148  0.0006
                                         0.0072  0.0000  0.0150 -0.0078
               ( 38.28%)   0.6187* H 14 s( 99.89%)p 0.00(  0.11%)
                                         0.9995 -0.0030 -0.0321 -0.0001 -0.0057
  22. (1.97573) BD ( 1) C  5- H 15
               ( 61.31%)   0.7830* C  5 s( 21.65%)p 3.62( 78.32%)d 0.00(  0.04%)
                                         0.0000  0.4652 -0.0064 -0.0692  0.0215
                                        -0.0551  0.0010 -0.8803  0.0003  0.0005
                                         0.0044  0.0020  0.0000  0.0181
               ( 38.69%)   0.6220* H 15 s( 99.89%)p 0.00(  0.11%)
                                         0.9994 -0.0049  0.0014  0.0016  0.0335
  23. (1.97813) BD ( 1) C  6- C  7
               ( 49.54%)   0.7039* C  6 s( 27.91%)p 2.58( 72.06%)d 0.00(  0.04%)
                                         0.0000  0.5283  0.0017 -0.8199 -0.0038
                                        -0.0498 -0.0316 -0.2118  0.0020 -0.0001
                                         0.0090 -0.0009  0.0149 -0.0077
               ( 50.46%)   0.7103* C  7 s( 28.65%)p 2.49( 71.32%)d 0.00(  0.03%)
                                         0.0000  0.5352  0.0058  0.8165 -0.0013
                                         0.0213 -0.0285  0.2125  0.0057  0.0024
                                         0.0080  0.0011  0.0140 -0.0080
  24. (1.97570) BD ( 1) C  6- H 16
               ( 61.31%)   0.7830* C  6 s( 21.60%)p 3.63( 78.37%)d 0.00(  0.03%)
                                         0.0000  0.4647 -0.0062  0.0691  0.0100
                                         0.0559 -0.0195  0.8805 -0.0012  0.0004
                                         0.0014  0.0035 -0.0003  0.0183
               ( 38.69%)   0.6220* H 16 s( 99.89%)p 0.00(  0.11%)
                                         0.9994 -0.0049 -0.0028 -0.0011 -0.0335
  25. (1.97791) BD ( 1) C  6- H 17
               ( 61.69%)   0.7854* C  6 s( 22.29%)p 3.48( 77.68%)d 0.00(  0.04%)
                                         0.0000  0.4721  0.0057  0.4094 -0.0007
                                        -0.7445  0.0069 -0.2336  0.0153 -0.0123
                                        -0.0044  0.0080 -0.0083 -0.0071
               ( 38.31%)   0.6190* H 17 s( 99.90%)p 0.00(  0.10%)
                                         0.9995 -0.0029 -0.0150  0.0269  0.0075
  26. (1.96882) BD ( 1) C  7- H 18
               ( 61.88%)   0.7866* C  7 s( 21.38%)p 3.68( 78.58%)d 0.00(  0.04%)
                                         0.0000  0.4624  0.0018 -0.4203  0.0059
                                        -0.5909 -0.0045  0.5097 -0.0108  0.0108
                                        -0.0102 -0.0119 -0.0027  0.0001
               ( 38.12%)   0.6174* H 18 s( 99.90%)p 0.00(  0.10%)
                                         0.9995 -0.0040  0.0138  0.0213 -0.0182
  27. (1.96344) BD ( 1) C  7- H 19
               ( 61.77%)   0.7860* C  7 s( 20.92%)p 3.78( 79.05%)d 0.00(  0.04%)
                                         0.0000  0.4574 -0.0023 -0.0758 -0.0041
                                        -0.3056 -0.0126 -0.8314  0.0044  0.0013
                                         0.0038  0.0086 -0.0012  0.0161
               ( 38.23%)   0.6183* H 19 s( 99.89%)p 0.00(  0.11%)
                                         0.9994 -0.0055  0.0030  0.0117  0.0307
 ---------------- non-Lewis ----------------------------------------------------
  28. (0.02163) BD*( 1) C  1- C  2
               ( 50.43%)   0.7101* C  1 s( 31.43%)p 2.18( 68.54%)d 0.00(  0.03%)
                                         0.0000  0.5606 -0.0031  0.8272 -0.0045
                                         0.0208  0.0024  0.0256 -0.0003 -0.0001
                                         0.0007  0.0000  0.0161 -0.0089
               ( 49.57%)  -0.7041* C  2 s( 30.99%)p 2.23( 68.98%)d 0.00(  0.03%)
                                         0.0000  0.5567  0.0012 -0.8301  0.0039
                                        -0.0137  0.0036 -0.0208  0.0006  0.0003
                                         0.0012  0.0008  0.0143 -0.0119
  29. (0.00645) BD*( 1) C  1- H  8
               ( 38.57%)   0.6211* C  1 s( 23.57%)p 3.24( 76.39%)d 0.00(  0.03%)
                                         0.0000 -0.4855 -0.0031  0.3502  0.0127
                                        -0.7996  0.0100 -0.0397  0.0014  0.0110
                                         0.0005 -0.0012  0.0113  0.0089
               ( 61.43%)  -0.7838* H  8 s( 99.90%)p 0.00(  0.10%)
                                        -0.9995  0.0011 -0.0123  0.0283  0.0014
  30. (0.01223) BD*( 1) C  1- H  9
               ( 38.59%)   0.6212* C  1 s( 22.50%)p 3.44( 77.47%)d 0.00(  0.04%)
                                         0.0000 -0.4743 -0.0005  0.3304  0.0144
                                         0.4659 -0.0065 -0.6694  0.0007 -0.0064
                                         0.0078  0.0146  0.0035 -0.0071
               ( 61.41%)  -0.7836* H  9 s( 99.91%)p 0.00(  0.09%)
                                        -0.9995  0.0028 -0.0120 -0.0152  0.0234
  31. (0.01204) BD*( 1) C  1- H 10
               ( 38.59%)   0.6212* C  1 s( 22.45%)p 3.45( 77.51%)d 0.00(  0.04%)
                                         0.0000 -0.4738 -0.0004  0.2886  0.0146
                                         0.3774 -0.0065  0.7410 -0.0010 -0.0044
                                        -0.0072 -0.0133  0.0021 -0.0109
               ( 61.41%)  -0.7836* H 10 s( 99.91%)p 0.00(  0.09%)
                                        -0.9995  0.0028 -0.0109 -0.0121 -0.0260
  32. (0.02558) BD*( 1) C  2- C  3
               ( 49.29%)   0.7020* C  2 s( 38.14%)p 1.62( 61.82%)d 0.00(  0.04%)
                                         0.0000 -0.6176 -0.0066 -0.4012  0.0070
                                        -0.6712 -0.0213 -0.0783 -0.0008 -0.0140
                                        -0.0016 -0.0031  0.0068  0.0132
               ( 50.71%)  -0.7121* C  3 s( 39.80%)p 1.51( 60.15%)d 0.00(  0.06%)
                                         0.0000 -0.6308 -0.0077  0.3983  0.0278
                                         0.6616 -0.0044  0.0652 -0.0017 -0.0159
                                        -0.0016 -0.0036  0.0094  0.0150
  33. (0.10677) BD*( 2) C  2- C  3
               ( 50.79%)   0.7127* C  2 s(  0.00%)p 1.00( 99.94%)d 0.00(  0.06%)
                                         0.0000  0.0017  0.0036  0.0244  0.0013
                                         0.0998  0.0010 -0.9944  0.0081  0.0018
                                        -0.0131 -0.0206 -0.0020 -0.0040
               ( 49.21%)  -0.7015* C  3 s(  0.00%)p 1.00( 99.93%)d 0.00(  0.06%)
                                         0.0000  0.0044 -0.0051  0.0057  0.0015
                                         0.0987  0.0004 -0.9947  0.0117 -0.0014
                                         0.0105  0.0219  0.0019  0.0042
  34. (0.03337) BD*( 1) C  2- C  7
               ( 50.23%)   0.7087* C  2 s( 30.79%)p 2.25( 69.17%)d 0.00(  0.04%)
                                         0.0000  0.5549 -0.0075  0.3857 -0.0205
                                        -0.7338 -0.0017 -0.0633 -0.0024 -0.0119
                                        -0.0008  0.0025 -0.0077 -0.0128
               ( 49.77%)  -0.7055* C  7 s( 28.97%)p 2.45( 70.99%)d 0.00(  0.04%)
                                         0.0000  0.5383 -0.0028 -0.3874 -0.0127
                                         0.7459 -0.0074  0.0573 -0.0009 -0.0129
                                        -0.0009  0.0023 -0.0096 -0.0098
  35. (0.02087) BD*( 1) C  3- C  4
               ( 50.60%)   0.7113* C  3 s( 33.14%)p 2.02( 66.82%)d 0.00(  0.04%)
                                         0.0000  0.5756  0.0058  0.8142 -0.0022
                                         0.0579  0.0418  0.0130  0.0050  0.0003
                                         0.0000  0.0008  0.0154 -0.0134
               ( 49.40%)  -0.7029* C  4 s( 28.59%)p 2.50( 71.38%)d 0.00(  0.04%)
                                         0.0000  0.5347  0.0014 -0.8432 -0.0047
                                        -0.0460  0.0246 -0.0011  0.0033  0.0024
                                         0.0003  0.0003  0.0159 -0.0100
  36. (0.01980) BD*( 1) C  3- H 11
               ( 38.99%)   0.6244* C  3 s( 26.93%)p 2.71( 73.03%)d 0.00(  0.03%)
                                         0.0000 -0.5188  0.0110  0.4206 -0.0072
                                        -0.7403 -0.0003 -0.0734 -0.0006  0.0136
                                         0.0013 -0.0026  0.0069  0.0099
               ( 61.01%)  -0.7811* H 11 s( 99.90%)p 0.00(  0.10%)
                                        -0.9995  0.0033 -0.0162  0.0265  0.0026
  37. (0.01685) BD*( 1) C  4- C  5
               ( 49.79%)   0.7056* C  4 s( 28.56%)p 2.50( 71.40%)d 0.00(  0.03%)
                                         0.0000  0.5345  0.0009  0.3779  0.0240
                                        -0.7073  0.0152 -0.2648 -0.0072 -0.0100
                                        -0.0036  0.0091 -0.0091 -0.0072
               ( 50.21%)  -0.7086* C  5 s( 27.83%)p 2.59( 72.13%)d 0.00(  0.04%)
                                         0.0000  0.5276  0.0023 -0.3529  0.0242
                                         0.7262  0.0201  0.2615 -0.0031 -0.0124
                                        -0.0063  0.0088 -0.0073 -0.0065
  38. (0.02282) BD*( 1) C  4- H 12
               ( 38.28%)   0.6187* C  4 s( 21.20%)p 3.72( 78.77%)d 0.00(  0.03%)
                                         0.0000 -0.4604  0.0031 -0.2806 -0.0047
                                        -0.1912 -0.0127 -0.8199  0.0058 -0.0018
                                        -0.0078 -0.0062 -0.0003 -0.0156
               ( 61.72%)  -0.7856* H 12 s( 99.89%)p 0.00(  0.11%)
                                        -0.9995  0.0052  0.0106  0.0074  0.0300
  39. (0.01678) BD*( 1) C  4- H 13
               ( 38.08%)   0.6171* C  4 s( 21.57%)p 3.64( 78.40%)d 0.00(  0.04%)
                                         0.0000 -0.4644 -0.0023 -0.2580 -0.0024
                                        -0.6784  0.0021  0.5071 -0.0120 -0.0067
                                         0.0044  0.0149  0.0087 -0.0001
               ( 61.92%)  -0.7869* H 13 s( 99.90%)p 0.00(  0.10%)
                                        -0.9995  0.0032  0.0096  0.0239 -0.0180
  40. (0.01950) BD*( 1) C  5- C  6
               ( 50.05%)   0.7074* C  5 s( 28.04%)p 2.57( 71.92%)d 0.00(  0.04%)
                                         0.0000  0.5295  0.0000 -0.3558  0.0274
                                        -0.6843 -0.0182  0.3512  0.0000  0.0115
                                        -0.0077 -0.0106 -0.0062 -0.0043
               ( 49.95%)  -0.7068* C  6 s( 28.09%)p 2.56( 71.88%)d 0.00(  0.04%)
                                         0.0000  0.5300 -0.0001  0.3927  0.0298
                                         0.6624 -0.0145 -0.3531 -0.0023  0.0105
                                        -0.0050 -0.0120 -0.0076 -0.0045
  41. (0.01431) BD*( 1) C  5- H 14
               ( 38.28%)   0.6187* C  5 s( 22.37%)p 3.47( 77.60%)d 0.00(  0.03%)
                                         0.0000 -0.4729 -0.0054 -0.8618  0.0072
                                        -0.0104  0.0017 -0.1812  0.0148 -0.0006
                                        -0.0072  0.0000 -0.0150  0.0078
               ( 61.72%)  -0.7856* H 14 s( 99.89%)p 0.00(  0.11%)
                                        -0.9995  0.0030  0.0321  0.0001  0.0057
  42. (0.01904) BD*( 1) C  5- H 15
               ( 38.69%)   0.6220* C  5 s( 21.65%)p 3.62( 78.32%)d 0.00(  0.04%)
                                         0.0000 -0.4652  0.0064  0.0692 -0.0215
                                         0.0551 -0.0010  0.8803 -0.0003 -0.0005
                                        -0.0044 -0.0020  0.0000 -0.0181
               ( 61.31%)  -0.7830* H 15 s( 99.89%)p 0.00(  0.11%)
                                        -0.9994  0.0049 -0.0014 -0.0016 -0.0335
  43. (0.01603) BD*( 1) C  6- C  7
               ( 50.46%)   0.7103* C  6 s( 27.91%)p 2.58( 72.06%)d 0.00(  0.04%)
                                         0.0000 -0.5283 -0.0017  0.8199  0.0038
                                         0.0498  0.0316  0.2118 -0.0020  0.0001
                                        -0.0090  0.0009 -0.0149  0.0077
               ( 49.54%)  -0.7039* C  7 s( 28.65%)p 2.49( 71.32%)d 0.00(  0.03%)
                                         0.0000 -0.5352 -0.0058 -0.8165  0.0013
                                        -0.0213  0.0285 -0.2125 -0.0057 -0.0024
                                        -0.0080 -0.0011 -0.0140  0.0080
  44. (0.01895) BD*( 1) C  6- H 16
               ( 38.69%)   0.6220* C  6 s( 21.60%)p 3.63( 78.37%)d 0.00(  0.03%)
                                         0.0000 -0.4647  0.0062 -0.0691 -0.0100
                                        -0.0559  0.0195 -0.8805  0.0012 -0.0004
                                        -0.0014 -0.0035  0.0003 -0.0183
               ( 61.31%)  -0.7830* H 16 s( 99.89%)p 0.00(  0.11%)
                                        -0.9994  0.0049  0.0028  0.0011  0.0335
  45. (0.01424) BD*( 1) C  6- H 17
               ( 38.31%)   0.6190* C  6 s( 22.29%)p 3.48( 77.68%)d 0.00(  0.04%)
                                         0.0000 -0.4721 -0.0057 -0.4094  0.0007
                                         0.7445 -0.0069  0.2336 -0.0153  0.0123
                                         0.0044 -0.0080  0.0083  0.0071
               ( 61.69%)  -0.7854* H 17 s( 99.90%)p 0.00(  0.10%)
                                        -0.9995  0.0029  0.0150 -0.0269 -0.0075
  46. (0.01770) BD*( 1) C  7- H 18
               ( 38.12%)   0.6174* C  7 s( 21.38%)p 3.68( 78.58%)d 0.00(  0.04%)
                                         0.0000 -0.4624 -0.0018  0.4203 -0.0059
                                         0.5909  0.0045 -0.5097  0.0108 -0.0108
                                         0.0102  0.0119  0.0027 -0.0001
               ( 61.88%)  -0.7866* H 18 s( 99.90%)p 0.00(  0.10%)
                                        -0.9995  0.0040 -0.0138 -0.0213  0.0182
  47. (0.02229) BD*( 1) C  7- H 19
               ( 38.23%)   0.6183* C  7 s( 20.92%)p 3.78( 79.05%)d 0.00(  0.04%)
                                         0.0000 -0.4574  0.0023  0.0758  0.0041
                                         0.3056  0.0126  0.8314 -0.0044 -0.0013
                                        -0.0038 -0.0086  0.0012 -0.0161
               ( 61.77%)  -0.7860* H 19 s( 99.89%)p 0.00(  0.11%)
                                        -0.9994  0.0055 -0.0030 -0.0117 -0.0307
  48. (0.00362) RY ( 1) C  1            s(  0.05%)p99.99( 93.68%)d99.99(  6.27%)
                                         0.0000 -0.0026  0.0229 -0.0015 -0.0061
                                         0.0165  0.9650  0.0009  0.0721  0.2495
                                         0.0136  0.0008  0.0093  0.0112
  49. (0.00149) RY ( 2) C  1            s(  0.24%)p99.99( 71.03%)d99.99( 28.72%)
                                         0.0000  0.0008  0.0495 -0.0002  0.0746
                                         0.0001  0.0579 -0.0093 -0.8374  0.0459
                                        -0.5140 -0.1370 -0.0008 -0.0468
  50. (0.00086) RY ( 3) C  1            s( 50.14%)p 0.97( 48.64%)d 0.02(  1.21%)
                                         0.0000  0.0155  0.7080 -0.0045  0.6924
                                        -0.0043 -0.0243  0.0001  0.0799  0.0259
                                         0.0395  0.0265 -0.0239 -0.0928
  51. (0.00009) RY ( 4) C  1            s( 41.14%)p 1.11( 45.68%)d 0.32( 13.18%)
  52. (0.00003) RY ( 5) C  1            s(  3.88%)p 1.41(  5.47%)d23.35( 90.65%)
  53. (0.00001) RY ( 6) C  1            s(  0.01%)p 1.00(  5.25%)d18.03( 94.74%)
  54. (0.00000) RY ( 7) C  1            s(  2.69%)p 1.37(  3.69%)d34.77( 93.62%)
  55. (0.00000) RY ( 8) C  1            s(  0.00%)p 1.00( 25.55%)d 2.91( 74.45%)
  56. (0.00000) RY ( 9) C  1            s(  1.88%)p 0.58(  1.09%)d51.47( 97.02%)
  57. (0.00470) RY ( 1) C  2            s(  6.99%)p12.18( 85.19%)d 1.12(  7.82%)
                                         0.0000  0.0136  0.2641  0.0183  0.8966
                                        -0.0117 -0.1318  0.0040  0.1733  0.0437
                                         0.0040 -0.0786  0.2628 -0.0318
  58. (0.00286) RY ( 2) C  2            s(  5.65%)p15.98( 90.34%)d 0.71(  4.01%)
                                         0.0000 -0.0126  0.2374 -0.0041  0.0261
                                        -0.0147  0.9130  0.0043  0.2625 -0.1761
                                        -0.0534 -0.0648 -0.0354 -0.0276
  59. (0.00258) RY ( 3) C  2            s(  0.13%)p99.99( 78.61%)d99.99( 21.26%)
                                         0.0000  0.0010  0.0357 -0.0026 -0.2155
                                         0.0024 -0.2754  0.0177  0.8145  0.0432
                                        -0.2149 -0.3820 -0.1049 -0.0877
  60. (0.00073) RY ( 4) C  2            s( 62.42%)p 0.17( 10.79%)d 0.43( 26.79%)
                                         0.0000 -0.0022  0.7901 -0.0034 -0.1705
                                         0.0057 -0.2443 -0.0002 -0.1382 -0.4197
                                         0.1690 -0.0009 -0.1952 -0.1583
  61. (0.00044) RY ( 5) C  2            s(  9.35%)p 0.13(  1.18%)d 9.57( 89.47%)
                                         0.0000 -0.0033  0.3058 -0.0063 -0.0274
                                        -0.0193  0.0909 -0.0009 -0.0489  0.8194
                                         0.3248 -0.1343 -0.3150  0.0211
  62. (0.00034) RY ( 6) C  2            s(  6.60%)p 0.15(  0.97%)d14.01( 92.43%)
                                         0.0000 -0.0001  0.2568 -0.0035  0.0063
                                        -0.0055 -0.0212  0.0036 -0.0958  0.2402
                                        -0.8437  0.3662 -0.1415  0.0261
  63. (0.00019) RY ( 7) C  2            s(  7.01%)p 1.70( 11.91%)d11.57( 81.09%)
                                         0.0000 -0.0055  0.2647  0.0106 -0.3436
                                        -0.0041  0.0146 -0.0018  0.0254  0.2268
                                         0.0126  0.0451  0.8700 -0.0152
  64. (0.00011) RY ( 8) C  2            s(  0.07%)p99.99( 20.71%)d99.99( 79.22%)
                                         0.0000  0.0033  0.0263 -0.0009 -0.0077
                                         0.0006 -0.0572 -0.0178  0.4510 -0.0044
                                         0.3174  0.7880 -0.0630  0.2579
  65. (0.00001) RY ( 9) C  2            s(  1.85%)p 0.22(  0.41%)d52.70( 97.74%)
  66. (0.00556) RY ( 1) C  3            s(  2.54%)p35.45( 90.08%)d 2.90(  7.38%)
                                         0.0000 -0.0281  0.1569 -0.0182 -0.7507
                                         0.0241  0.5709  0.0015  0.1019  0.2084
                                         0.0336 -0.0243  0.1692  0.0000
  67. (0.00240) RY ( 2) C  3            s( 17.76%)p 4.12( 73.17%)d 0.51(  9.07%)
                                         0.0000  0.0060  0.4213  0.0103 -0.2603
                                         0.0114 -0.3156 -0.0155 -0.7509 -0.0394
                                        -0.2653 -0.1039  0.0583 -0.0680
  68. (0.00169) RY ( 3) C  3            s(  6.26%)p13.43( 84.08%)d 1.54(  9.66%)
                                         0.0000  0.0093  0.2500  0.0194 -0.4081
                                         0.0090 -0.6650  0.0098  0.4812 -0.1626
                                         0.2257  0.1095  0.0849  0.0064
  69. (0.00073) RY ( 4) C  3            s( 69.82%)p 0.39( 27.53%)d 0.04(  2.65%)
                                         0.0000 -0.0049  0.8356 -0.0167  0.4164
                                         0.0037  0.2125 -0.0013  0.2376  0.1144
                                         0.0220 -0.0235  0.0607 -0.0932
  70. (0.00021) RY ( 5) C  3            s(  0.08%)p99.99( 11.67%)d99.99( 88.25%)
                                         0.0000  0.0002  0.0278 -0.0140  0.0895
                                        -0.0125  0.1727  0.0113 -0.2800 -0.4643
                                         0.5443  0.3672  0.4741  0.1049
  71. (0.00015) RY ( 6) C  3            s(  0.51%)p12.17(  6.19%)d99.99( 93.30%)
                                         0.0000  0.0022  0.0713  0.0132 -0.0252
                                         0.0134 -0.0785  0.0094 -0.2338  0.5262
                                         0.5598  0.2899 -0.4903  0.1353
  72. (0.00003) RY ( 7) C  3            s(  2.37%)p 2.88(  6.82%)d38.35( 90.81%)
  73. (0.00001) RY ( 8) C  3            s(  0.79%)p 0.24(  0.19%)d99.99( 99.02%)
  74. (0.00001) RY ( 9) C  3            s(  0.00%)p 1.00(  0.32%)d99.99( 99.67%)
  75. (0.00390) RY ( 1) C  4            s(  2.54%)p34.97( 88.98%)d 3.33(  8.48%)
[...]
  6 C                -0.2       0.1      -0.0       0.0       0.0      -5.3
 10 H                -0.5       0.2      -0.1       0.1      -0.0      -0.1
 11 H                -4.0      -1.0     -10.5      -5.8      -2.2       0.2
 12 H                -7.1      -1.9      -5.6      -9.8      -2.2      -0.2
 13 H                 0.3       0.3       0.3      -0.0       0.1     -10.8
 14 H                -0.3      -0.1      -0.0       0.2      -0.0     -11.9
 16 H                -0.2       0.0      -0.0      -0.0      -0.0      -0.1
 17 H                -0.0      -0.0      -0.0      -0.0      -0.0      -0.3
 18 H                -0.0      -0.0       0.0      -0.0      -0.0       0.2

                     84        85        86        87        88        89   
                   0.00000   0.00000   0.00000   0.00000   0.00000   0.00000
                   0.00152   0.00122   0.00055   0.00030   0.00016   0.00007
                  --------  --------  --------  --------  --------  --------
  0 C                -0.0       0.0      -0.2      -0.0       0.0      -0.0
  1 C                -0.2      -0.2      -1.9      -0.1       0.1       0.0
  2 C                -0.0      -0.4       2.8       0.8      -0.5      -0.1
  3 C                -1.3     -28.8     -61.7     -11.6      -0.4      -2.7
  4 C               133.0     170.0     216.2     117.8     103.9     125.4
  5 C                -2.0     -39.0     -41.8      -2.0      -1.1      -5.2
  6 C                -0.2      -0.3      -2.4      -0.1      -0.1      -0.0
 11 H                -0.1      -0.1       0.5      -0.4      -0.1       0.0
 12 H                -0.2       0.2       0.2       0.3       0.0       0.1
 13 H               -10.9      -1.6     -11.3      -1.3      -1.1      -3.6
 14 H               -17.5      -0.0      -1.3      -3.3      -0.7     -14.3
 15 H                -0.1      -0.1       0.9       0.1      -0.1       0.1
 16 H                -0.3       0.6       0.2      -0.1       0.2       0.2
 17 H                -0.0      -0.0      -0.2      -0.0       0.0      -0.0
 18 H                -0.0      -0.1       0.1      -0.0      -0.0      -0.0

                     90        91        92        93        94        95   
                   0.00000   0.00000   0.00000   0.00000   0.00000   0.00000
                   0.00001   0.00001   0.00474   0.00156   0.00121   0.00052
                  --------  --------  --------  --------  --------  --------
  0 C                 0.0       0.0      -0.3      -0.0      -0.0      -0.8
  1 C                 0.4       0.0      -1.8      -0.2      -0.4       2.9
  2 C                -0.6      -0.1       0.6      -0.0      -0.2      -1.4
  3 C                -6.0      -1.3      -5.4      -0.3      -0.2      -2.7
  4 C               127.8     109.6     -11.2      -1.0     -40.1     -43.5
  5 C                -5.4      -1.4     153.6     134.7     170.3     224.4
  6 C                -0.1      -0.1     -11.9      -3.5     -27.3     -68.4
 11 H                 0.1      -0.1       0.2      -0.0      -0.1       0.1
 12 H                 0.0       0.1      -0.4       0.0      -0.0      -0.3
 13 H               -13.9      -3.5      -0.1      -0.2       0.5       0.2
 14 H                -2.5      -3.3      -0.0      -0.2      -0.1       0.9
 15 H                 0.1      -0.1     -11.7     -18.1       0.1      -1.4
 16 H                 0.1       0.1     -11.5     -10.8      -2.6     -10.8
 17 H                -0.0      -0.0      -0.2      -0.3       0.3       0.3
 18 H                -0.0      -0.0       0.2      -0.1      -0.2       0.5

                     96        97        98        99       100       101   
                   0.00000   0.00000   0.00000   0.00000   0.00000   0.00000
                   0.00030   0.00016   0.00006   0.00002   0.00001   0.00415
                  --------  --------  --------  --------  --------  --------
  0 C                -0.1       0.0       0.0      -0.0      -0.0      -1.4
  1 C                 0.6      -0.6      -0.0      -0.4      -0.1     -12.9
  2 C                 0.1       0.0      -0.0       0.2       0.0       0.9
  3 C                 0.0      -0.1      -0.0      -0.0      -0.1       0.6
  4 C                -1.3      -1.3      -4.5      -5.1      -1.5      -4.6
  5 C               114.0     104.2     123.9     125.8     110.7     -17.1
  6 C                -9.0      -0.3      -2.7      -5.5      -1.5     155.0
 13 H                -0.1       0.2       0.1       0.1       0.2      -0.2
 14 H                -0.0      -0.1       0.1       0.1      -0.1      -0.6
 15 H                -3.2      -0.9     -13.9      -2.3      -3.5      -0.2
 16 H                -0.9      -1.2      -3.2     -13.0      -4.0       0.3
 17 H                 0.4       0.0       0.2       0.0       0.1     -16.6
 18 H                -0.3      -0.1       0.0       0.1      -0.1      -3.1

                    102       103       104       105       106       107   
                   0.00000   0.00000   0.00000   0.00000   0.00000   0.00000
                   0.00267   0.00142   0.00074   0.00035   0.00014   0.00004
                  --------  --------  --------  --------  --------  --------
  0 C                -6.0      -3.8       0.0      -0.2       0.4       1.0
  1 C               -29.1     -85.0     -10.8      -7.8      -0.5      -5.2
  2 C                -2.1      -2.7       0.4      -0.2      -0.7       1.2
  3 C                -0.2      -1.2       0.2       0.1       0.3      -0.2
  4 C                -1.0      -1.4      -1.3       0.0      -0.2       0.0
  5 C                -3.9     -11.5     -69.5     -15.9      -4.6      -3.0
  6 C               168.9     209.1     201.7     132.2     111.3     115.0
  8 H                 0.2      -0.1      -0.1      -0.0      -0.0      -0.0
  9 H                -0.1      -0.1      -0.2      -0.0      -0.0      -0.1
 10 H                 0.1       0.3      -0.0       0.0      -0.0      -0.0
 13 H                -0.0      -0.2      -0.1      -0.1       0.0      -0.0
 15 H                -0.0      -0.1       0.8      -0.3      -0.1      -0.1
 16 H                -0.1      -0.8       0.7       0.4       0.6      -0.0
 17 H                -2.1      -2.0     -16.1      -4.2      -3.9      -4.5
 18 H               -24.6      -0.7      -5.7      -3.8      -2.4      -4.3

                    108       109       110       111       112       113   
                   0.00000   0.00000   0.00000   0.00000   0.00000   0.00000
                   0.00002   0.00001   0.00163   0.00015   0.00011   0.00003
                  --------  --------  --------  --------  --------  --------
  0 C                 0.1      -0.2     -39.2      -2.9      -2.8      -8.2
  1 C                -0.7      -2.4       2.8      -0.2      -0.2      -0.2
  2 C                -0.0       0.3      -3.1      -0.0      -0.0      -0.1
  3 C                 0.0       0.0      -0.1      -0.0      -0.0      -0.0
  4 C                -0.2      -0.0      -0.0      -0.0       0.0       0.0
  5 C                -1.7      -2.0      -0.0      -0.0      -0.0      -0.0
  6 C               116.4     109.1       0.2      -0.0      -0.1      -0.0
  7 H                -0.0       0.0     143.0     103.8     104.0     108.9
  8 H                -0.0      -0.0      -0.5      -0.3      -0.4      -0.1
  9 H                 0.0      -0.0      -0.5      -0.3      -0.3      -0.1
 10 H                -0.0      -0.0      -2.6      -0.0      -0.1      -0.2
 15 H                 0.1       0.1      -0.0      -0.0      -0.0      -0.0
 17 H                -5.3      -2.9      -0.0      -0.0      -0.0      -0.0
 18 H                -8.7      -1.9      -0.0      -0.0      -0.0      -0.0

                    114       115       116       117       118       119   
                   0.00000   0.00000   0.00000   0.00000   0.00000   0.00000
                   0.00208   0.00018   0.00014   0.00003   0.00210   0.00018
                  --------  --------  --------  --------  --------  --------
  0 C               -33.0      -2.8      -3.3      -7.8     -33.5      -2.8
  1 C                -0.7      -0.2       0.0      -0.1      -0.1      -0.2
  2 C                 0.4      -0.1      -0.1      -0.0       0.4      -0.1
  6 C                 0.0      -0.0       0.0      -0.0      -0.5      -0.0
  7 H                -0.5      -0.3      -0.4      -0.1      -0.5      -0.3
  8 H               135.7     103.9     104.4     108.3      -0.2      -0.5
  9 H                -0.2      -0.5      -0.5      -0.1     135.4     103.9
 17 H                -1.6      -0.0      -0.0      -0.1      -0.0      -0.0
 18 H                -0.0      -0.0      -0.0      -0.0      -1.0      -0.0

                    120       121       122       123       124       125   
                   0.00000   0.00000   0.00000   0.00000   0.00000   0.00000
                   0.00014   0.00003   0.00231   0.00022   0.00007   0.00006
                  --------  --------  --------  --------  --------  --------
  0 C                -3.1      -7.9      -1.7      -0.0      -0.0      -0.0
  1 C                -0.0      -0.1      -0.3      -0.1      -0.1      -0.3
  2 C                -0.1      -0.0     -40.3      -2.9      -8.3      -4.2
  3 C                -0.0      -0.0      -1.0      -0.1       0.0      -1.1
  4 C                -0.0      -0.0      -0.1      -0.0      -0.0      -0.0
  6 C                 0.0      -0.0       0.4      -0.0      -0.0      -0.0
  7 H                -0.4      -0.1      -2.6      -0.0      -0.1      -0.0
  8 H                -0.5      -0.1      -0.0      -0.0      -0.0      -0.0
  9 H               104.2     108.3      -0.0      -0.0      -0.0      -0.0
 10 H                -0.0      -0.0     146.3     103.4     108.6     105.8
 12 H                -0.0      -0.0      -0.6      -0.0      -0.0      -0.0

                    126       127       128       129       130       131   
                   0.00000   0.00000   0.00000   0.00000   0.00000   0.00000
                   0.00300   0.00015   0.00011   0.00003   0.00235   0.00015
                  --------  --------  --------  --------  --------  --------
  1 C                 0.3      -0.0      -0.1      -0.0       0.1      -0.1
  2 C                -0.7       0.0      -0.4      -0.1       0.2      -0.2
  3 C               -31.9      -3.5      -3.3      -7.9     -34.0      -3.5
  4 C                -0.0      -0.2      -0.1      -0.1       0.7      -0.1
  5 C                 0.3      -0.1      -0.1      -0.1      -0.6      -0.0
 10 H                -0.1      -0.0      -0.0      -0.0      -0.6      -0.0
 11 H               134.1     104.6     104.8     108.3      -0.3      -0.6
 12 H                -0.2      -0.6      -0.7       0.0     135.2     104.7
 13 H                -0.7      -0.0      -0.0      -0.0      -0.1      -0.0
 14 H                -0.0      -0.1      -0.0      -0.0      -0.7      -0.1
 15 H                -1.1      -0.0      -0.0      -0.0       0.0      -0.0

                    132       133       134       135       136       137   
                   0.00000   0.00000   0.00000   0.00000   0.00000   0.00000
                   0.00011   0.00003   0.00241   0.00012   0.00009   0.00003
                  --------  --------  --------  --------  --------  --------
  2 C                -0.2      -0.2      -0.3      -0.0      -0.0      -0.0
  3 C                -3.0      -8.0       0.9      -0.1      -0.3      -0.3
  4 C                -0.3      -0.3     -35.2      -3.7      -2.8      -7.7
  5 C                -0.0      -0.0       0.8      -0.1      -0.4      -0.2
  6 C                -0.0      -0.0      -0.5      -0.0      -0.0      -0.0
 11 H                -0.6      -0.0      -0.6      -0.1      -0.0      -0.0
 12 H               104.2     108.5      -0.1      -0.0      -0.0      -0.0
 13 H                -0.0      -0.0     135.9     104.7     104.1     108.4
 14 H                -0.0      -0.0      -0.3      -0.6      -0.4      -0.0
 15 H                -0.0      -0.0      -0.2      -0.0      -0.0      -0.0
 16 H                -0.0      -0.0      -0.4      -0.0      -0.1      -0.0

                    138       139       140       141       142       143   
                   0.00000   0.00000   0.00000   0.00000   0.00000   0.00000
                   0.00314   0.00012   0.00009   0.00003   0.00312   0.00012
                  --------  --------  --------  --------  --------  --------
  1 C                 0.1      -0.0      -0.0      -0.0      -0.2      -0.1
  2 C                -0.3      -0.0      -0.1      -0.0       0.0      -0.0
  3 C                 0.3      -0.1      -0.3      -0.1      -0.5      -0.0
  4 C               -32.8      -3.8      -2.7      -7.7       0.9      -0.1
  5 C                 0.9      -0.1      -0.2      -0.1     -32.8      -3.7
  6 C                -0.5      -0.0      -0.0      -0.0       0.3      -0.0
 11 H                -0.0      -0.0      -0.1      -0.0      -1.1      -0.0
 12 H                -0.7      -0.0      -0.1       0.0      -0.0      -0.0
 13 H                -0.3      -0.6      -0.4       0.0      -0.2      -0.0
 14 H               134.6     104.7     104.0     108.1      -0.0      -0.0
 15 H                -0.0      -0.0      -0.0      -0.0     134.6     104.8
 16 H                -0.2      -0.0      -0.0      -0.0      -0.3      -0.6
 17 H                -0.0      -0.0      -0.0      -0.0      -0.8      -0.0
 18 H                -1.1      -0.0      -0.0      -0.0      -0.0      -0.0

                    144       145       146       147       148       149   
                   0.00000   0.00000   0.00000   0.00000   0.00000   0.00000
                   0.00009   0.00003   0.00241   0.00013   0.00009   0.00003
                  --------  --------  --------  --------  --------  --------
  0 C                -0.0      -0.0      -0.1      -0.0      -0.0      -0.0
  1 C                -0.1      -0.0      -0.4      -0.0      -0.0      -0.0
  2 C                -0.0       0.0       0.2      -0.0      -0.0      -0.0
  3 C                -0.0      -0.0      -0.5      -0.0      -0.0      -0.0
  4 C                -0.2      -0.1       0.7      -0.1      -0.3      -0.2
  5 C                -2.7      -7.7     -34.9      -3.7      -2.7      -7.8
  6 C                -0.3      -0.1       1.0      -0.1      -0.4      -0.3
 13 H                -0.0      -0.0      -0.4      -0.0      -0.1      -0.0
 14 H                -0.0      -0.0      -0.2      -0.0      -0.0      -0.0
 15 H               104.0     108.1      -0.3      -0.6      -0.4      -0.0
 16 H                -0.4       0.0     135.7     104.6     104.1     108.4
 18 H                -0.1      -0.0      -0.6      -0.1      -0.0      -0.0

                    150       151       152       153       154       155   
                   0.00000   0.00000   0.00000   0.00000   0.00000   0.00000
                   0.00272   0.00014   0.00010   0.00003   0.00321   0.00014
                  --------  --------  --------  --------  --------  --------
  0 C                -1.0      -0.0      -0.0      -0.0       0.3      -0.0
  1 C                 1.2      -0.2      -0.1      -0.2      -0.4       0.0
  2 C                 0.3      -0.1      -0.0       0.0       0.3      -0.0
  4 C                -0.5      -0.0      -0.0      -0.0       0.2      -0.1
  5 C                 0.9      -0.1      -0.2      -0.3       0.1      -0.1
  6 C               -35.8      -3.3      -3.0      -7.9     -32.5      -3.6
  8 H                -1.7      -0.0      -0.0      -0.1      -0.0      -0.0
  9 H                -0.0      -0.0      -0.0      -0.0      -1.0      -0.0
 14 H                -0.0      -0.0      -0.0      -0.0      -1.1      -0.0
 15 H                -0.7      -0.1      -0.0      -0.0      -0.0      -0.1
 16 H                -0.1      -0.0      -0.0      -0.0      -0.7      -0.0
 17 H               137.8     104.5     104.3     108.6      -0.2      -0.7
 18 H                -0.3      -0.6      -0.7      -0.0     135.1     104.7

                    156       157   
                   0.00000   0.00000
                   0.00009   0.00003
                  --------  --------
  0 C                -0.1      -0.0
  1 C                -0.2      -0.1
  5 C                -0.1      -0.1
  6 C                -3.3      -7.9
 17 H                -0.7       0.0
 18 H               104.7     108.4

Storing NBOs: 1279.nbo
                                    *** NBOs were stored ***

                                *** returned from GENNBO program ***

-------
TIMINGS
-------

Total SCF time: 0 days 0 hours 0 min 7 sec 

Total time                  ....       7.150 sec
Sum of individual times     ....       7.745 sec  (108.3%)

Fock matrix formation       ....       4.726 sec  ( 66.1%)
  Coulomb formation         ....       2.440 sec  ( 51.6% of F)
  Split-RI-J                ....       2.430 sec  ( 51.4% of F)
  XC integration            ....       2.280 sec  ( 48.2% of F)
    Basis function eval.    ....       0.746 sec  ( 32.7% of XC)
    Density eval.           ....       0.425 sec  ( 18.7% of XC)
    XC-Functional eval.     ....       0.117 sec  (  5.1% of XC)
    XC-Potential eval.      ....       0.946 sec  ( 41.5% of XC)
Diagonalization             ....       0.029 sec  (  0.4%)
Density matrix formation    ....       0.003 sec  (  0.0%)
Population analysis         ....       1.658 sec  ( 23.2%)
Initial guess               ....       0.457 sec  (  6.4%)
Orbital Transformation      ....       0.000 sec  (  0.0%)
Orbital Orthonormalization  ....       0.000 sec  (  0.0%)
DIIS solution               ....       0.007 sec  (  0.1%)
SOSCF solution              ....       0.020 sec  (  0.3%)
Grid generation             ....       0.846 sec  ( 11.8%)
           ************************************************************
           *              Shut down parallel processing               *
           ************************************************************

-------------------------   --------------------
FINAL SINGLE POINT ENERGY      -273.381202052101
-------------------------   --------------------


                            ***************************************
                            *     ORCA property calculations      *
                            ***************************************

                                    ---------------------
                                    Active property flags
                                    ---------------------
   (+) Dipole Moment


------------------------------------------------------------------------------
                       ORCA ELECTRIC PROPERTIES CALCULATION
------------------------------------------------------------------------------

Dipole Moment Calculation                       ... on
Quadrupole Moment Calculation                   ... off
Polarizability Calculation                      ... off
GBWName                                         ... 1279.gbw
Electron density file                           ... 1279.scfp.tmp

-------------
DIPOLE MOMENT
-------------
                                X             Y             Z
Electronic contribution:      0.25374       0.98191       0.13094
Nuclear contribution   :     -0.24527      -1.07838      -0.14445
                        -----------------------------------------
Total Dipole Moment    :      0.00847      -0.09647      -0.01351
                        -----------------------------------------
Magnitude (a.u.)       :      0.09778
Magnitude (Debye)      :      0.24854


Timings for individual modules:

Sum of individual times         ...        8.416 sec (=   0.140 min)
GTO integral calculation        ...        0.480 sec (=   0.008 min)   5.7 %
SCF iterations                  ...        7.936 sec (=   0.132 min)  94.3 %
                             ****ORCA TERMINATED NORMALLY****
TOTAL RUN TIME: 0 days 0 hours 0 minutes 8 seconds 811 msec
