
                                 *****************
                                 * O   R   C   A *
                                 *****************

           --- An Ab Initio, DFT and Semiempirical electronic structure package ---

                  #######################################################
                  #                        -***-                        #
                  #  Department of molecular theory and spectroscopy    #
                  #              Directorship: Frank Neese              #
                  # Max Planck Institute for Chemical Energy Conversion #
                  #                  D-45470 Muelheim/Ruhr              #
                  #                       Germany                       #
                  #                                                     #
                  #                  All rights reserved                #
                  #                        -***-                        #
                  #######################################################


                         Program Version 3.0.3 - RELEASE   -


 With contributions from (in alphabetic order):
   Ute Becker             : Parallelization
   Dmytro Bykov           : SCF Hessian
   Dmitry Ganyushin       : Spin-Orbit,Spin-Spin,Magnetic field MRCI
   Andreas Hansen         : Spin unrestricted coupled pair/coupled cluster methods
   Dimitrios Liakos       : Extrapolation schemes; parallel MDCI
   Robert Izsak           : Overlap fitted RIJCOSX, COSX-SCS-MP3
   Christian Kollmar      : KDIIS, OOCD, Brueckner-CCSD(T), CCSD density
   Simone Kossmann        : Meta GGA functionals, TD-DFT gradient, OOMP2, MP2 Hessian
   Taras Petrenko         : DFT Hessian,TD-DFT gradient, ASA and ECA modules, normal mode analysis, Resonance Raman, ABS, FL, XAS/XES, NRVS
   Christoph Reimann      : Effective Core Potentials
   Michael Roemelt        : Restricted open shell CIS
   Christoph Riplinger    : Improved optimizer, TS searches, QM/MM, DLPNO-CCSD
   Barbara Sandhoefer     : DKH picture change effects
   Igor Schapiro          : Molecular dynamics
   Kantharuban Sivalingam : CASSCF convergence, NEVPT2
   Boris Wezisla          : Elementary symmetry handling
   Frank Wennmohs         : Technical directorship


 We gratefully acknowledge several colleagues who have allowed us to
 interface, adapt or use parts of their codes:
   Stefan Grimme, W. Hujo, H. Kruse, T. Risthaus : VdW corrections, initial TS optimization,
                                                   DFT functionals, gCP
   Ed Valeev                                     : LibInt (2-el integral package), F12 methods
   Garnet Chan, S. Sharma, R. Olivares           : DMRG
   Ulf Ekstrom                                   : XCFun DFT Library
   Mihaly Kallay                                 : mrcc  (arbitrary order and MRCC methods)
   Andreas Klamt, Michael Diedenhofen            : otool_cosmo (COSMO solvation model)
   Frank Weinhold                                : gennbo (NPA and NBO analysis)
   Christopher J. Cramer and Donald G. Truhlar   : smd solvation model


 Your calculation uses the libint2 library for the computation of 2-el integrals
 For citations please refer to: http://libint.valeyev.net

 This ORCA versions uses:
   CBLAS   interface :  Fast vector & matrix operations
   LAPACKE interface :  Fast linear algebra routines
   SCALAPACK package :  Parallel linear algebra routines


Your calculation utilizes the basis: Ahlrichs-VDZ
Cite in your paper:
H - Kr: A. Schaefer, H. Horn and R. Ahlrichs, J. Chem. Phys. 97, 2571 (1992).

Your calculation utilizes the basis: Ahlrichs SVPalls1+f
Cite in your paper:
Rb - Xe: A. Schaefer, C. Huber and R. Ahlrichs, J. Chem. Phys. 100, 5829 (1994).

================================================================================
                                        WARNINGS
                       Please study these warnings very carefully!
================================================================================
Now building the actual basis set


INFO   : the flag for use of LIBINT has been found!

================================================================================
                                       INPUT FILE
================================================================================
NAME = 1297.inp
|  1> ! RI PBE def2-SVP def2-SVP/J NBO PAL2
|  2> % maxcore 2000
|  3> % output
|  4>     # printlevel mini
|  5>     print[ P_Basis ] 0
|  6>     print[ P_SCFInfo ] 1
|  7>     print[ P_SCFIterInfo ] 1
|  8>     print[ P_OrbEn ] 0
|  9>     print[ P_Cartesian ] 0
| 10> end
| 11> *xyz 0 1
| 12>  C        0.9792750000     0.0616710000    -0.4184500000 
| 13>  C        2.3832400000    -0.0713840000     0.1546520000 
| 14>  C        2.6243730000    -1.3823440000     0.9328210000 
| 15>  C        3.3161110000    -0.9796730000     2.2162990000 
| 16>  C        3.8845660000    -1.7886790000     3.1103270000 
| 17>  C        3.2451230000     0.4731090000     2.2856810000 
| 18>  C        2.7298080000     0.9846210000     1.1653830000 
| 19>  H        0.7714480000    -0.7378030000    -1.1343110000 
| 20>  H        0.8499430000     1.0150940000    -0.9372420000 
| 21>  H        0.2305920000     0.0067230000     0.3766910000 
| 22>  H        3.0947830000     0.0010330000    -0.6798090000 
| 23>  H        3.2028150000    -2.1131420000     0.3644380000 
| 24>  H        1.6630930000    -1.8507120000     1.1699130000 
| 25>  H        3.9061580000    -2.8638550000     2.9738140000 
| 26>  H        4.3475770000    -1.3946240000     4.0078950000 
| 27>  H        3.5922970000     1.0431510000     3.1393260000 
| 28>  H        2.5888090000     2.0421160000     0.9695840000 
| 29> *
| 30> 
| 31>                          ****END OF INPUT****
================================================================================

                       ****************************
                       * Single Point Calculation *
                       ****************************

--------------------------------
INTERNAL COORDINATES (ANGSTROEM)
--------------------------------
 C      0   0   0   0.000000     0.000     0.000
 C      1   0   0   1.522257     0.000     0.000
 C      2   1   0   1.543473   114.088     0.000
 C      3   2   1   1.512601   105.851   226.323
 C      4   3   2   1.333011   127.053   190.177
 C      4   3   2   1.456169   106.483     9.985
 C      6   4   3   1.335014   111.167   353.831
 H      1   2   3   1.093073   110.977   298.554
 H      1   2   3   1.093109   111.348   178.545
 H      1   2   3   1.093524   110.689    58.478
 H      2   1   3   1.099028   107.789   122.129
 H      3   2   1   1.091659   112.884   103.229
 H      3   2   1   1.095281   109.586   344.151
 H      5   4   3   1.084023   121.734     0.707
 H      5   4   3   1.084106   121.119   180.633
 H      6   4   3   1.083599   123.145   175.051
 H      7   6   4   1.084672   125.114   180.958

---------------------------
INTERNAL COORDINATES (A.U.)
---------------------------
 C      0   0   0   0.000000     0.000     0.000
 C      1   0   0   2.876649     0.000     0.000
 C      2   1   0   2.916741   114.088     0.000
 C      3   2   1   2.858401   105.851   226.323
 C      4   3   2   2.519025   127.053   190.177
 C      4   3   2   2.751761   106.483     9.985
 C      6   4   3   2.522810   111.167   353.831
 H      1   2   3   2.065608   110.977   298.554
 H      1   2   3   2.065677   111.348   178.545
 H      1   2   3   2.066461   110.689    58.478
 H      2   1   3   2.076862   107.789   122.129
 H      3   2   1   2.062937   112.884   103.229
 H      3   2   1   2.069781   109.586   344.151
 H      5   4   3   2.048506   121.734     0.707
 H      5   4   3   2.048664   121.119   180.633
 H      6   4   3   2.047706   123.145   175.051
 H      7   6   4   2.049733   125.114   180.958



           ************************************************************
           *        Program running with 2 parallel MPI-processes     *
           *              working on a common directory               *
           ************************************************************
------------------------------------------------------------------------------
                           ORCA GTO INTEGRAL CALCULATION
                           -- RI-GTO INTEGRALS CHOSEN --
------------------------------------------------------------------------------

                         BASIS SET STATISTICS AND STARTUP INFO

Gaussian basis set:
 # of primitive gaussian shells          ...  134
 # of primitive gaussian functions       ...  238
 # of contracted shells                  ...   72
 # of contracted basis functions         ...  148
 Highest angular momentum                ...    2
 Maximum contraction depth               ...    5
Auxiliary gaussian basis set:
 # of primitive gaussian shells          ...  248
 # of primitive gaussian functions       ...  650
 # of contracted shells                  ...  155
 # of contracted aux-basis functions     ...  453
 Highest angular momentum                ...    4
 Maximum contraction depth               ...    7
Ratio of auxiliary to basis functions    ...  3.06
Integral package used                  ... LIBINT
 One Electron integrals                  ... done
 Ordering auxiliary basis shells         ... done
 Integral threshhold             Thresh  ...  1.000e-10
 Primitive cut-off               TCut    ...  1.000e-11
 Pre-screening matrix                    ... done
 Shell pair data                         ... 
 Ordering of the shell pairs             ... done (   0.000 sec) 2526 of 2628 pairs
 Determination of significant pairs      ... done (   0.000 sec)
 Creation of shell pair data             ... done (   0.000 sec)
 Storage of shell pair data              ... done (   0.000 sec)
 Shell pair data done in (   0.001 sec)
 Computing two index integrals           ... done
 Cholesky decomposition of the V-matrix  ... done


Timings:
 Total evaluation time                   ...   0.159 sec (  0.003 min)
 One electron matrix time                ...   0.021 sec (  0.000 min) = 13.2%
 Schwartz matrix evaluation time         ...   0.073 sec (  0.001 min) = 45.9%
 Two index repulsion integral time       ...   0.005 sec (  0.000 min) =  2.9%
 Cholesky decomposition of V             ...   0.004 sec (  0.000 min) =  2.3%
 Three index repulsion integral time     ...   0.000 sec (  0.000 min) =  0.0%

           ************************************************************
           *              Shut down parallel processing               *
           ************************************************************


           ************************************************************
           *        Program running with 2 parallel MPI-processes     *
           *              working on a common directory               *
           ************************************************************
-------------------------------------------------------------------------------
                                 ORCA SCF
-------------------------------------------------------------------------------

------------
SCF SETTINGS
------------
Hamiltonian:
 Density Functional     Method          .... DFT(GTOs)
 Exchange Functional    Exchange        .... PBE
   PBE kappa parameter  XKappa          ....  0.804000
 Correlation Functional Correlation     .... PBE
 LDA part of GGA corr.  LDAOpt          .... PW91-LDA
 Gradients option       PostSCFGGA      .... off
   NL short-range parameter             ....  6.400000
 RI-approximation to the Coulomb term is turned on
   Number of auxiliary basis functions  .... 453


General Settings:
 Integral files         IntName         .... 1297
 Hartree-Fock type      HFTyp           .... RHF
 Total Charge           Charge          ....    0
 Multiplicity           Mult            ....    1
 Number of Electrons    NEL             ....   52
 Basis Dimension        Dim             ....  148
 Nuclear Repulsion      ENuc            ....    286.3015130785 Eh

Convergence Acceleration:
 DIIS                   CNVDIIS         .... on
   Start iteration      DIISMaxIt       ....    12
   Startup error        DIISStart       ....  0.200000
   # of expansion vecs  DIISMaxEq       ....     5
   Bias factor          DIISBfac        ....   1.050
   Max. coefficient     DIISMaxC        ....  10.000
 Newton-Raphson         CNVNR           .... off
 SOSCF                  CNVSOSCF        .... on
   Start iteration      SOSCFMaxIt      ....   150
   Startup grad/error   SOSCFStart      ....  0.003300
 Level Shifting         CNVShift        .... on
   Level shift para.    LevelShift      ....    0.2500
   Turn off err/grad.   ShiftErr        ....    0.0010
 Zerner damping         CNVZerner       .... off
 Static damping         CNVDamp         .... on
   Fraction old density DampFac         ....    0.7000
   Max. Damping (<1)    DampMax         ....    0.9800
   Min. Damping (>=0)   DampMin         ....    0.0000
   Turn off err/grad.   DampErr         ....    0.1000
 Fernandez-Rico         CNVRico         .... off

SCF Procedure:
 Maximum # iterations   MaxIter         ....   125
 SCF integral mode      SCFMode         .... Direct
   Integral package                     .... LIBINT
 Reset frequeny         DirectResetFreq ....    20
 Integral Threshold     Thresh          ....  1.000e-10 Eh
 Primitive CutOff       TCut            ....  1.000e-11 Eh

Convergence Tolerance:
 Convergence Check Mode ConvCheckMode   .... Total+1el-Energy
 Energy Change          TolE            ....  1.000e-06 Eh
 1-El. energy change                    ....  1.000e-03 Eh
 Orbital Gradient       TolG            ....  5.000e-05
 Orbital Rotation angle TolX            ....  5.000e-05
 DIIS Error             TolErr          ....  1.000e-06


Diagonalization of the overlap matrix:
Smallest eigenvalue                        ... 7.011e-04
Time for diagonalization                   ...    0.013 sec
Threshold for overlap eigenvalues          ... 1.000e-08
Number of eigenvalues below threshold      ... 0
Time for construction of square roots      ...    0.003 sec
Total time needed                          ...    0.016 sec

-------------------
DFT GRID GENERATION
-------------------

General Integration Accuracy     IntAcc      ...  4.340
Radial Grid Type                 RadialGrid  ... Gauss-Chebyshev
Angular Grid (max. acc.)         AngularGrid ... Lebedev-110
Angular grid pruning method      GridPruning ... 3 (G Style)
Weight generation scheme         WeightScheme... Becke
Basis function cutoff            BFCut       ...    1.0000e-10
Integration weight cutoff        WCut        ...    1.0000e-14
Grids for H and He will be reduced by one unit

# of grid points (after initial pruning)     ...  19532 (   0.0 sec)
# of grid points (after weights+screening)   ...  18026 (   0.1 sec)
nearest neighbour list constructed           ...    0.0 sec
Grid point re-assignment to atoms done       ...    0.0 sec
Grid point division into batches done        ...    0.0 sec
Reduced shell lists constructed in    0.1 sec

Total number of grid points                  ...    18026
Total number of batches                      ...      290
Average number of points per batch           ...       62
Average number of grid points per atom       ...     1060
Average number of shells per batch           ...    56.73 (78.79%)
Average number of basis functions per batch  ...   115.40 (77.97%)
Average number of large shells per batch     ...    46.10 (81.26%)
Average number of large basis fcns per batch ...    92.92 (80.52%)
Maximum spatial batch extension              ...  19.49, 16.66, 17.17 au
Average spatial batch extension              ...   1.60,  1.34,  1.48 au

Time for grid setup =    0.149 sec

------------------------------
INITIAL GUESS: MODEL POTENTIAL
------------------------------
Loading Hartree-Fock densities                     ... done
Calculating cut-offs                               ... done
Setting up the integral package                    ... done
Initializing the effective Hamiltonian             ... done
Starting the Coulomb interaction                   ... done (   0.0 sec)
Reading the grid                                   ... done
Mapping shells                                     ... done
Starting the XC term evaluation                    ... done (   0.1 sec)
  promolecular density results
     # of electrons  =     52.001948287
     EX              =    -38.740084101
     EC              =     -1.694744179
     EX+EC           =    -40.434828279
Transforming the Hamiltonian                       ... done (   0.0 sec)
Diagonalizing the Hamiltonian                      ... done (   0.0 sec)
Back transforming the eigenvectors                 ... done (   0.0 sec)
Now organizing SCF variables                       ... done
                      ------------------
                      INITIAL GUESS DONE (   0.4 sec)
                      ------------------
--------------
SCF ITERATIONS
--------------
ITER       Energy         Delta-E        Max-DP      RMS-DP      [F,P]     Damp
               ***  Starting incremental Fock matrix formation  ***
  0   -271.9896864958   0.000000000000 0.07160935  0.00237451  0.1566467 0.7000
  1   -272.0718954097  -0.082208913901 0.04076692  0.00178049  0.0755254 0.7000
                               ***Turning on DIIS***
  2   -272.1028785556  -0.030983145956 0.05208119  0.00295684  0.0227400 0.0000
  3   -272.1435336770  -0.040655121369 0.03221839  0.00128168  0.0476063 0.0000
  4   -272.1589525093  -0.015418832242 0.00866323  0.00041130  0.0105842 0.0000
                      *** Initiating the SOSCF procedure ***
                           *** Shutting down DIIS ***
                      *** Re-Reading the Fockian *** 
                      *** Removing any level shift *** 
ITER      Energy       Delta-E        Grad      Rot      Max-DP    RMS-DP
  5   -272.15977016  -0.0008176533  0.001028  0.001028  0.004014  0.000164
               *** Restarting incremental Fock matrix formation ***
  6   -272.15983747  -0.0000673101  0.000647  0.004534  0.003812  0.000120
  7   -272.15982021   0.0000172654  0.001623  0.003090  0.002809  0.000057
  8   -272.15984394  -0.0000237326  0.000233  0.000653  0.001283  0.000045
  9   -272.15984190   0.0000020437  0.000354  0.000604  0.000956  0.000023
 10   -272.15984499  -0.0000030979  0.000111  0.000324  0.000519  0.000018
 11   -272.15984454   0.0000004501  0.000152  0.000188  0.000329  0.000011
                 **** Energy Check signals convergence ****
              ***Rediagonalizing the Fockian in SOSCF/NRSCF***

               *****************************************************
               *                     SUCCESS                       *
               *           SCF CONVERGED AFTER  12 CYCLES          *
               *****************************************************

Setting up the final grid:

General Integration Accuracy     IntAcc      ...  4.670
Radial Grid Type                 RadialGrid  ... Gauss-Chebyshev
Angular Grid (max. acc.)         AngularGrid ... Lebedev-302
Angular grid pruning method      GridPruning ... 3 (G Style)
Weight generation scheme         WeightScheme... Becke
Basis function cutoff            BFCut       ...    1.0000e-10
Integration weight cutoff        WCut        ...    1.0000e-14
Grids for H and He will be reduced by one unit

# of grid points (after initial pruning)     ...  77424 (   0.0 sec)
# of grid points (after weights+screening)   ...  70452 (   0.1 sec)
nearest neighbour list constructed           ...    0.0 sec
Grid point re-assignment to atoms done       ...    0.0 sec
Grid point division into batches done        ...    0.2 sec
Reduced shell lists constructed in    0.5 sec

Total number of grid points                  ...    70452
Total number of batches                      ...     1111
Average number of points per batch           ...       63
Average number of grid points per atom       ...     4144
Average number of shells per batch           ...    53.36 (74.11%)
Average number of basis functions per batch  ...   107.88 (72.89%)
Average number of large shells per batch     ...    42.40 (79.47%)
Average number of large basis fcns per batch ...    84.50 (78.33%)
Maximum spatial batch extension              ...  17.32, 17.81, 16.78 au
Average spatial batch extension              ...   0.94,  0.93,  0.92 au

Final grid set up in    0.6 sec
Final integration                            ... done (   0.5 sec)
Change in XC energy                          ...     0.001343196
Integrated number of electrons               ...    52.000052317
Previous integrated no of electrons          ...    52.006144255

----------------
TOTAL SCF ENERGY
----------------

Total Energy       :         -272.15850197 Eh           -7405.80934 eV

Components:
Nuclear Repulsion  :          286.30151308 Eh            7790.66024 eV
Electronic Energy  :         -558.46001505 Eh          -15196.46958 eV

One Electron Energy:         -932.57035063 Eh          -25376.52936 eV
Two Electron Energy:          374.11033558 Eh           10180.05978 eV

Virial components:
Potential Energy   :         -541.42192914 Eh          -14732.83969 eV
Kinetic Energy     :          269.26342717 Eh            7327.03035 eV
Virial Ratio       :            2.01075183


DFT components:
N(Alpha)           :       26.000026158636 electrons
N(Beta)            :       26.000026158636 electrons
N(Total)           :       52.000052317273 electrons
E(X)               :      -39.591001117786 Eh       
E(C)               :       -1.709573083771 Eh       
E(XC)              :      -41.300574201557 Eh       

---------------
SCF CONVERGENCE
---------------

  Last Energy change         ...   -6.2391e-07  Tolerance :   1.0000e-06
  Last MAX-Density change    ...    2.8967e-05  Tolerance :   1.0000e-05
  Last RMS-Density change    ...    1.0647e-06  Tolerance :   1.0000e-06
  Last Orbital Gradient      ...    3.1320e-06  Tolerance :   5.0000e-05
  Last Orbital Rotation      ...    9.2104e-06  Tolerance :   5.0000e-05

             **** THE GBW FILE WAS UPDATED (1297.gbw) ****
             **** DENSITY FILE WAS UPDATED (1297.scfp.tmp) ****
             **** ENERGY FILE WAS UPDATED (1297.en.tmp) ****

                    ********************************
                    * MULLIKEN POPULATION ANALYSIS *
                    ********************************

-----------------------
MULLIKEN ATOMIC CHARGES
-----------------------
   0 C :    0.009682
   1 C :   -0.116906
   2 C :    0.156804
   3 C :   -0.131213
   4 C :   -0.053819
   5 C :    0.044604
   6 C :   -0.025552
   7 H :    0.025727
   8 H :    0.019232
   9 H :    0.023164
  10 H :    0.028438
  11 H :    0.019456
  12 H :    0.021138
  13 H :    0.007658
  14 H :    0.003064
  15 H :   -0.020849
  16 H :   -0.010629
Sum of atomic charges:    0.0000000

--------------------------------
MULLIKEN REDUCED ORBITAL CHARGES
--------------------------------
  0 C s       :     2.988905  s :     2.988905
      pz      :     0.995765  p :     2.975961
      px      :     0.977063
      py      :     1.003133
      dz2     :     0.001847  d :     0.025452
      dxz     :     0.007367
      dyz     :     0.006528
      dx2y2   :     0.007057
      dxy     :     0.002652
  1 C s       :     3.073356  s :     3.073356
      pz      :     1.023322  p :     3.001265
      px      :     1.010819
      py      :     0.967124
      dz2     :     0.006103  d :     0.042284
      dxz     :     0.011102
      dyz     :     0.009237
      dx2y2   :     0.008797
      dxy     :     0.007046
  2 C s       :     2.867734  s :     2.867734
      pz      :     0.951721  p :     2.944261
      px      :     0.993781
      py      :     0.998759
      dz2     :     0.006201  d :     0.031201
      dxz     :     0.005766
      dyz     :     0.007811
      dx2y2   :     0.005061
      dxy     :     0.006363
  3 C s       :     3.112280  s :     3.112280
      pz      :     1.018245  p :     2.975579
      px      :     0.986991
      py      :     0.970344
      dz2     :     0.010684  d :     0.043354
      dxz     :     0.006237
      dyz     :     0.010276
      dx2y2   :     0.008468
      dxy     :     0.007690
  4 C s       :     3.129578  s :     3.129578
      pz      :     0.962029  p :     2.901343
      px      :     1.037923
      py      :     0.901390
      dz2     :     0.005884  d :     0.022898
      dxz     :     0.003368
      dyz     :     0.005701
      dx2y2   :     0.004885
      dxy     :     0.003060
  5 C s       :     3.188543  s :     3.188543
      pz      :     0.852468  p :     2.733117
      px      :     0.960620
      py      :     0.920030
      dz2     :     0.008178  d :     0.033736
      dxz     :     0.004718
      dyz     :     0.010045
      dx2y2   :     0.005575
      dxy     :     0.005219
  6 C s       :     3.219377  s :     3.219377
      pz      :     0.971069  p :     2.772961
      px      :     0.969854
      py      :     0.832038
      dz2     :     0.009057  d :     0.033214
      dxz     :     0.005599
      dyz     :     0.009080
      dx2y2   :     0.006058
      dxy     :     0.003419
  7 H s       :     0.950644  s :     0.950644
      pz      :     0.008970  p :     0.023629
      px      :     0.004876
      py      :     0.009783
  8 H s       :     0.957192  s :     0.957192
      pz      :     0.007386  p :     0.023576
      px      :     0.004659
      py      :     0.011532
  9 H s       :     0.953348  s :     0.953348
      pz      :     0.009476  p :     0.023488
      px      :     0.008368
      py      :     0.005645
 10 H s       :     0.949756  s :     0.949756
      pz      :     0.009362  p :     0.021806
      px      :     0.008138
      py      :     0.004305
 11 H s       :     0.957654  s :     0.957654
      pz      :     0.006917  p :     0.022891
      px      :     0.007634
      py      :     0.008339
 12 H s       :     0.955513  s :     0.955513
      pz      :     0.005245  p :     0.023349
      px      :     0.011628
      py      :     0.006476
 13 H s       :     0.968001  s :     0.968001
      pz      :     0.005009  p :     0.024340
      px      :     0.005455
      py      :     0.013877
 14 H s       :     0.972581  s :     0.972581
      pz      :     0.011348  p :     0.024355
      px      :     0.007236
      py      :     0.005771
 15 H s       :     0.997615  s :     0.997615
      pz      :     0.010665  p :     0.023234
      px      :     0.005802
      py      :     0.006767
 16 H s       :     0.987425  s :     0.987425
      pz      :     0.004346  p :     0.023203
      px      :     0.005043
      py      :     0.013814


                     *******************************
                     * LOEWDIN POPULATION ANALYSIS *
                     *******************************

----------------------
LOEWDIN ATOMIC CHARGES
----------------------
   0 C :   -0.060047
   1 C :   -0.041899
   2 C :   -0.022079
   3 C :   -0.029681
   4 C :   -0.083889
   5 C :   -0.027164
   6 C :   -0.014643
   7 H :    0.027543
   8 H :    0.026139
   9 H :    0.025898
  10 H :    0.035641
  11 H :    0.034134
  12 H :    0.039021
  13 H :    0.021499
  14 H :    0.021806
  15 H :    0.025958
  16 H :    0.021760

-------------------------------
LOEWDIN REDUCED ORBITAL CHARGES
-------------------------------
  0 C s       :     2.841206  s :     2.841206
      pz      :     1.059260  p :     3.148915
      px      :     1.024566
      py      :     1.065088
      dz2     :     0.004471  d :     0.069927
      dxz     :     0.020609
      dyz     :     0.018408
      dx2y2   :     0.020308
      dxy     :     0.006132
  1 C s       :     2.839634  s :     2.839634
      pz      :     1.034643  p :     3.097323
      px      :     1.039818
      py      :     1.022863
      dz2     :     0.012691  d :     0.104943
      dxz     :     0.027603
      dyz     :     0.026774
      dx2y2   :     0.024356
      dxy     :     0.013518
  2 C s       :     2.837656  s :     2.837656
      pz      :     1.020674  p :     3.102075
      px      :     1.056963
      py      :     1.024438
      dz2     :     0.015120  d :     0.082347
      dxz     :     0.015446
      dyz     :     0.021719
      dx2y2   :     0.012700
      dxy     :     0.017363
  3 C s       :     2.864418  s :     2.864418
      pz      :     1.028377  p :     3.053065
      px      :     0.972949
      py      :     1.051738
      dz2     :     0.028179  d :     0.112199
      dxz     :     0.015838
      dyz     :     0.027021
      dx2y2   :     0.023267
      dxy     :     0.017893
  4 C s       :     2.877926  s :     2.877926
      pz      :     1.048717  p :     3.139318
      px      :     1.042336
      py      :     1.048266
      dz2     :     0.016841  d :     0.066644
      dxz     :     0.010135
      dyz     :     0.017200
      dx2y2   :     0.014236
      dxy     :     0.008232
  5 C s       :     2.869516  s :     2.869516
      pz      :     1.048696  p :     3.065837
      px      :     0.984091
      py      :     1.033050
      dz2     :     0.023678  d :     0.091811
      dxz     :     0.012128
      dyz     :     0.027639
      dx2y2   :     0.016033
      dxy     :     0.012333
  6 C s       :     2.882061  s :     2.882061
      pz      :     1.048716  p :     3.045018
      px      :     0.966616
      py      :     1.029686
      dz2     :     0.022594  d :     0.087564
      dxz     :     0.013719
      dyz     :     0.028704
      dx2y2   :     0.014099
      dxy     :     0.008448
  7 H s       :     0.905826  s :     0.905826
      pz      :     0.024792  p :     0.066631
      px      :     0.014495
      py      :     0.027345
  8 H s       :     0.907342  s :     0.907342
      pz      :     0.019281  p :     0.066519
      px      :     0.013825
      py      :     0.033412
  9 H s       :     0.907406  s :     0.907406
      pz      :     0.027253  p :     0.066696
      px      :     0.026447
      py      :     0.012996
 10 H s       :     0.896061  s :     0.896061
      pz      :     0.029322  p :     0.068297
      px      :     0.025209
      py      :     0.013766
 11 H s       :     0.897089  s :     0.897089
      pz      :     0.021114  p :     0.068777
      px      :     0.021588
      py      :     0.026074
 12 H s       :     0.892226  s :     0.892226
      pz      :     0.015335  p :     0.068753
      px      :     0.034550
      py      :     0.018867
 13 H s       :     0.907845  s :     0.907845
      pz      :     0.013592  p :     0.070656
      px      :     0.016041
      py      :     0.041023
 14 H s       :     0.907378  s :     0.907378
      pz      :     0.033288  p :     0.070816
      px      :     0.021405
      py      :     0.016124
 15 H s       :     0.904642  s :     0.904642
      pz      :     0.031035  p :     0.069401
      px      :     0.016920
      py      :     0.021445
 16 H s       :     0.907321  s :     0.907321
      pz      :     0.013637  p :     0.070919
      px      :     0.015358
      py      :     0.041924


                      *****************************
                      * MAYER POPULATION ANALYSIS *
                      *****************************

  NA   - Mulliken gross atomic population
  ZA   - Total nuclear charge
  QA   - Mulliken gross atomic charge
  VA   - Mayer's total valence
  BVA  - Mayer's bonded valence
  FA   - Mayer's free valence

  ATOM       NA         ZA         QA         VA         BVA        FA
  0 C      5.9903     6.0000     0.0097     3.9645     3.9645     0.0000
  1 C      6.1169     6.0000    -0.1169     4.1398     4.1398     0.0000
  2 C      5.8432     6.0000     0.1568     3.8604     3.8604    -0.0000
  3 C      6.1312     6.0000    -0.1312     4.2393     4.2393     0.0000
  4 C      6.0538     6.0000    -0.0538     3.9113     3.9113     0.0000
  5 C      5.9554     6.0000     0.0446     3.8202     3.8202    -0.0000
  6 C      6.0256     6.0000    -0.0256     3.8734     3.8734     0.0000
  7 H      0.9743     1.0000     0.0257     0.9844     0.9844     0.0000
  8 H      0.9808     1.0000     0.0192     0.9886     0.9886    -0.0000
  9 H      0.9768     1.0000     0.0232     0.9980     0.9980     0.0000
 10 H      0.9716     1.0000     0.0284     0.9649     0.9649     0.0000
 11 H      0.9805     1.0000     0.0195     0.9868     0.9868    -0.0000
 12 H      0.9789     1.0000     0.0211     0.9995     0.9995     0.0000
 13 H      0.9923     1.0000     0.0077     0.9812     0.9812     0.0000
 14 H      0.9969     1.0000     0.0031     0.9795     0.9795    -0.0000
 15 H      1.0208     1.0000    -0.0208     0.9870     0.9870     0.0000
 16 H      1.0106     1.0000    -0.0106     0.9882     0.9882     0.0000

  Mayer bond orders larger than 0.1
B(  0-C ,  1-C ) :   1.0806 B(  0-C ,  7-H ) :   0.9606 B(  0-C ,  8-H ) :   0.9611 
B(  0-C ,  9-H ) :   0.9601 B(  1-C ,  2-C ) :   1.0517 B(  1-C ,  6-C ) :   1.0366 
B(  1-C , 10-H ) :   0.8829 B(  2-C ,  3-C ) :   1.0326 B(  2-C , 11-H ) :   0.9109 
B(  2-C , 12-H ) :   0.9037 B(  3-C ,  4-C ) :   1.9210 B(  3-C ,  5-C ) :   1.0908 
B(  4-C ,  6-C ) :   0.1316 B(  4-C , 13-H ) :   0.9358 B(  4-C , 14-H ) :   0.9251 
B(  5-C ,  6-C ) :   1.7191 B(  5-C , 15-H ) :   0.9923 B(  6-C , 16-H ) :   0.9850 



 *********************************** NBO 6.0 ***********************************
             N A T U R A L   A T O M I C   O R B I T A L   A N D
          N A T U R A L   B O N D   O R B I T A L   A N A L Y S I S
 ***************************** Kiya KiyaLu (100703) ****************************
  (c) Copyright 1996-2015 Board of Regents of the University of Wisconsin System
      on behalf of the Theoretical Chemistry Institute.  All rights reserved.

          Cite this program as:

          NBO 6.0.  E. D. Glendening, J. K. Badenhoop, A. E. Reed,
          J. E. Carpenter, J. A. Bohmann, C. M. Morales, C. R. Landis,
          and F. Weinhold (Theoretical Chemistry Institute, University
          of Wisconsin, Madison, WI, 2013); http://nbo6.chem.wisc.edu/

       /NPA    / : Natural Population Analysis
       /NBO    / : Natural Bond Orbital Analysis
       /AONBO  / : Write the AO to NBO transformation to lfn77
       /FILE   / : Set to 1297

 Filename set to 1297

 Job title:  *** NBO job generated by orca_scf

 Warning: MOs are non-orthogonal; program will continue

 Warning: -4586.84175 electrons reside outside the linearly independent MO space


 NATURAL POPULATIONS:  Natural atomic orbital occupancies

  NAO Atom No lang   Type(AO)    Occupancy      Energy
 -------------------------------------------------------
   1    C  1  s      Cor( 1s)     1.99918      -9.77392
   2    C  1  s      Val( 2s)     1.08263      -0.21223
   3    C  1  s      Ryd( 3s)     0.00050       0.80398
   4    C  1  px     Val( 2p)     1.10489      -0.06655
   5    C  1  px     Ryd( 3p)     0.00109       0.47521
   6    C  1  py     Val( 2p)     1.23461      -0.06874
   7    C  1  py     Ryd( 3p)     0.00285       0.61382
   8    C  1  pz     Val( 2p)     1.21484      -0.06873
   9    C  1  pz     Ryd( 3p)     0.00274       0.59068
  10    C  1  dxy    Ryd( 3d)     0.00021       2.01534
  11    C  1  dxz    Ryd( 3d)     0.00063       2.28959
  12    C  1  dyz    Ryd( 3d)     0.00065       2.34966
  13    C  1  dx2y2  Ryd( 3d)     0.00068       2.30611
  14    C  1  dz2    Ryd( 3d)     0.00018       2.06621

  15    C  2  s      Cor( 1s)     1.99896      -9.78226
  16    C  2  s      Val( 2s)     0.94851      -0.17601
  17    C  2  s      Ryd( 3s)     0.00106       0.93194
  18    C  2  px     Val( 2p)     1.12073      -0.07666
  19    C  2  px     Ryd( 3p)     0.00188       0.70150
  20    C  2  py     Val( 2p)     1.05127      -0.07903
  21    C  2  py     Ryd( 3p)     0.00212       0.61481
  22    C  2  pz     Val( 2p)     1.14446      -0.07119
  23    C  2  pz     Ryd( 3p)     0.00416       0.70804
  24    C  2  dxy    Ryd( 3d)     0.00065       1.97271
  25    C  2  dxz    Ryd( 3d)     0.00096       2.34940
  26    C  2  dyz    Ryd( 3d)     0.00076       2.21271
  27    C  2  dx2y2  Ryd( 3d)     0.00075       2.20684
  28    C  2  dz2    Ryd( 3d)     0.00056       2.04929

  29    C  3  s      Cor( 1s)     1.99904      -9.77106
  30    C  3  s      Val( 2s)     1.00961      -0.18605
  31    C  3  s      Ryd( 3s)     0.00154       0.93919
  32    C  3  px     Val( 2p)     1.20649      -0.06851
  33    C  3  px     Ryd( 3p)     0.00343       0.71437
  34    C  3  py     Val( 2p)     1.13834      -0.06535
  35    C  3  py     Ryd( 3p)     0.00338       0.55286
  36    C  3  pz     Val( 2p)     1.09018      -0.06844
  37    C  3  pz     Ryd( 3p)     0.00211       0.59774
  38    C  3  dxy    Ryd( 3d)     0.00051       2.27895
  39    C  3  dxz    Ryd( 3d)     0.00056       2.18050
  40    C  3  dyz    Ryd( 3d)     0.00066       2.24701
  41    C  3  dx2y2  Ryd( 3d)     0.00052       2.14755
  42    C  3  dz2    Ryd( 3d)     0.00059       2.09749

  43    C  4  s      Cor( 1s)     1.99888      -9.76820
  44    C  4  s      Val( 2s)     0.87543      -0.10773
  45    C  4  s      Ryd( 3s)     0.00234       0.51882
  46    C  4  px     Val( 2p)     1.02087      -0.08359
  47    C  4  px     Ryd( 3p)     0.00210       0.69816
  48    C  4  py     Val( 2p)     1.08349      -0.04781
  49    C  4  py     Ryd( 3p)     0.00395       0.85818
  50    C  4  pz     Val( 2p)     1.06620      -0.06222
  51    C  4  pz     Ryd( 3p)     0.00473       0.89706
  52    C  4  dxy    Ryd( 3d)     0.00073       1.99610
  53    C  4  dxz    Ryd( 3d)     0.00060       2.12517
  54    C  4  dyz    Ryd( 3d)     0.00082       2.21479
  55    C  4  dx2y2  Ryd( 3d)     0.00070       2.18816
  56    C  4  dz2    Ryd( 3d)     0.00083       2.12757

  57    C  5  s      Cor( 1s)     1.99885      -9.75001
  58    C  5  s      Val( 2s)     1.02333      -0.14953
  59    C  5  s      Ryd( 3s)     0.00050       0.55638
  60    C  5  px     Val( 2p)     1.07306      -0.08181
  61    C  5  px     Ryd( 3p)     0.00208       0.52238
  62    C  5  py     Val( 2p)     1.17493      -0.02243
  63    C  5  py     Ryd( 3p)     0.00405       0.73619
  64    C  5  pz     Val( 2p)     1.13281      -0.03964
  65    C  5  pz     Ryd( 3p)     0.00251       0.61917
  66    C  5  dxy    Ryd( 3d)     0.00032       1.99526
  67    C  5  dxz    Ryd( 3d)     0.00047       2.13493
  68    C  5  dyz    Ryd( 3d)     0.00058       2.24811
  69    C  5  dx2y2  Ryd( 3d)     0.00050       2.22868
  70    C  5  dz2    Ryd( 3d)     0.00045       2.14599

  71    C  6  s      Cor( 1s)     1.99876      -9.75891
  72    C  6  s      Val( 2s)     0.94856      -0.12545
  73    C  6  s      Ryd( 3s)     0.00185       0.54242
  74    C  6  px     Val( 2p)     1.02627      -0.09394
  75    C  6  px     Ryd( 3p)     0.00168       0.58300
  76    C  6  py     Val( 2p)     1.08670      -0.03636
  77    C  6  py     Ryd( 3p)     0.00504       0.69472
  78    C  6  pz     Val( 2p)     1.15633      -0.05566
  79    C  6  pz     Ryd( 3p)     0.00367       0.79733
  80    C  6  dxy    Ryd( 3d)     0.00045       1.94194
  81    C  6  dxz    Ryd( 3d)     0.00066       2.09771
  82    C  6  dyz    Ryd( 3d)     0.00080       2.29551
  83    C  6  dx2y2  Ryd( 3d)     0.00061       2.12751
  84    C  6  dz2    Ryd( 3d)     0.00077       2.18548

  85    C  7  s      Cor( 1s)     1.99887      -9.76532
  86    C  7  s      Val( 2s)     0.95287      -0.13945
  87    C  7  s      Ryd( 3s)     0.00179       0.55554
  88    C  7  px     Val( 2p)     0.99312      -0.09727
  89    C  7  px     Ryd( 3p)     0.00325       0.56218
  90    C  7  py     Val( 2p)     1.17274      -0.04344
  91    C  7  py     Ryd( 3p)     0.00542       0.90542
  92    C  7  pz     Val( 2p)     1.04626      -0.04662
  93    C  7  pz     Ryd( 3p)     0.00300       0.58279
  94    C  7  dxy    Ryd( 3d)     0.00033       1.97039
  95    C  7  dxz    Ryd( 3d)     0.00064       2.06072
  96    C  7  dyz    Ryd( 3d)     0.00064       2.28550
  97    C  7  dx2y2  Ryd( 3d)     0.00071       2.20764
  98    C  7  dz2    Ryd( 3d)     0.00081       2.16857

  99    H  8  s      Val( 1s)     0.77192       0.06894
 100    H  8  s      Ryd( 2s)     0.00172       0.33769
 101    H  8  px     Ryd( 2p)     0.00014       1.71425
 102    H  8  py     Ryd( 2p)     0.00049       2.05302
 103    H  8  pz     Ryd( 2p)     0.00042       1.99743

 104    H  9  s      Val( 1s)     0.77260       0.06815
 105    H  9  s      Ryd( 2s)     0.00172       0.33639
 106    H  9  px     Ryd( 2p)     0.00013       1.69431
 107    H  9  py     Ryd( 2p)     0.00063       2.17664
 108    H  9  pz     Ryd( 2p)     0.00030       1.88231

 109    H 10  s      Val( 1s)     0.77621       0.06759
 110    H 10  s      Ryd( 2s)     0.00228       0.35272
 111    H 10  px     Ryd( 2p)     0.00042       1.98317
 112    H 10  py     Ryd( 2p)     0.00016       1.72951
 113    H 10  pz     Ryd( 2p)     0.00047       2.02434

 114    H 11  s      Val( 1s)     0.75103       0.08143
 115    H 11  s      Ryd( 2s)     0.00383       0.33387
 116    H 11  px     Ryd( 2p)     0.00047       2.00930
 117    H 11  py     Ryd( 2p)     0.00011       1.73914
 118    H 11  pz     Ryd( 2p)     0.00055       2.07656

 119    H 12  s      Val( 1s)     0.75306       0.07926
 120    H 12  s      Ryd( 2s)     0.00188       0.33353
 121    H 12  px     Ryd( 2p)     0.00035       1.92927
 122    H 12  py     Ryd( 2p)     0.00040       2.01550
 123    H 12  pz     Ryd( 2p)     0.00030       1.87999

 124    H 13  s      Val( 1s)     0.75394       0.07116
 125    H 13  s      Ryd( 2s)     0.00224       0.35536
 126    H 13  px     Ryd( 2p)     0.00070       2.15789
 127    H 13  py     Ryd( 2p)     0.00024       1.88602
 128    H 13  pz     Ryd( 2p)     0.00019       1.76380

 129    H 14  s      Val( 1s)     0.79100       0.07161
 130    H 14  s      Ryd( 2s)     0.00159       0.33139
 131    H 14  px     Ryd( 2p)     0.00022       1.63144
 132    H 14  py     Ryd( 2p)     0.00089       2.33624
 133    H 14  pz     Ryd( 2p)     0.00015       1.73286

 134    H 15  s      Val( 1s)     0.79036       0.07287
 135    H 15  s      Ryd( 2s)     0.00171       0.32721
 136    H 15  px     Ryd( 2p)     0.00036       1.75640
 137    H 15  py     Ryd( 2p)     0.00020       1.84759
 138    H 15  pz     Ryd( 2p)     0.00064       2.13717

 139    H 16  s      Val( 1s)     0.76713       0.07861
 140    H 16  s      Ryd( 2s)     0.00168       0.31029
 141    H 16  px     Ryd( 2p)     0.00024       1.72106
 142    H 16  py     Ryd( 2p)     0.00030       2.01544
 143    H 16  pz     Ryd( 2p)     0.00060       2.13178

 144    H 17  s      Val( 1s)     0.77291       0.07508
 145    H 17  s      Ryd( 2s)     0.00166       0.31125
 146    H 17  px     Ryd( 2p)     0.00018       1.66218
 147    H 17  py     Ryd( 2p)     0.00095       2.29680
 148    H 17  pz     Ryd( 2p)     0.00011       1.85265

   1 low occupancy (<1.9990e) core orbital  found on  C  2
   1 low occupancy (<1.9990e) core orbital  found on  C  4
   1 low occupancy (<1.9990e) core orbital  found on  C  5
   1 low occupancy (<1.9990e) core orbital  found on  C  6
   1 low occupancy (<1.9990e) core orbital  found on  C  7


 Summary of Natural Population Analysis:

                                     Natural Population
             Natural    ---------------------------------------------
  Atom No    Charge        Core      Valence    Rydberg      Total
 --------------------------------------------------------------------
    C  1   -0.64567      1.99918     4.63697    0.00952     6.64567
    C  2   -0.27684      1.99896     4.26499    0.01289     6.27684
    C  3   -0.45696      1.99904     4.44462    0.01330     6.45696
    C  4   -0.06169      1.99888     4.04600    0.01680     6.06169
    C  5   -0.41444      1.99885     4.40413    0.01146     6.41444
    C  6   -0.23215      1.99876     4.21786    0.01553     6.23215
    C  7   -0.18045      1.99887     4.16499    0.01659     6.18045
    H  8    0.22530      0.00000     0.77192    0.00277     0.77470
    H  9    0.22461      0.00000     0.77260    0.00279     0.77539
    H 10    0.22046      0.00000     0.77621    0.00333     0.77954
    H 11    0.24401      0.00000     0.75103    0.00497     0.75599
    H 12    0.24401      0.00000     0.75306    0.00293     0.75599
    H 13    0.24270      0.00000     0.75394    0.00337     0.75730
    H 14    0.20616      0.00000     0.79100    0.00284     0.79384
    H 15    0.20672      0.00000     0.79036    0.00292     0.79328
    H 16    0.23005      0.00000     0.76713    0.00282     0.76995
    H 17    0.22419      0.00000     0.77291    0.00290     0.77581
 ====================================================================
 * Total *  0.00000     13.99255    37.87972    0.12773    52.00000

                                 Natural Population
 ---------------------------------------------------------
   Core                      13.99255 ( 99.9468% of   14)
   Valence                   37.87972 ( 99.6835% of   38)
   Natural Minimal Basis     51.87227 ( 99.7544% of   52)
   Natural Rydberg Basis      0.12773 (  0.2456% of   52)
 ---------------------------------------------------------

    Atom No         Natural Electron Configuration
 ----------------------------------------------------------------------------
      C  1      [core]2s( 1.08)2p( 3.55)3p( 0.01)
      C  2      [core]2s( 0.95)2p( 3.32)3p( 0.01)
      C  3      [core]2s( 1.01)2p( 3.44)3p( 0.01)
      C  4      [core]2s( 0.88)2p( 3.17)3p( 0.01)
      C  5      [core]2s( 1.02)2p( 3.38)3p( 0.01)
      C  6      [core]2s( 0.95)2p( 3.27)3p( 0.01)
      C  7      [core]2s( 0.95)2p( 3.21)3p( 0.01)
      H  8            1s( 0.77)
      H  9            1s( 0.77)
      H 10            1s( 0.78)
      H 11            1s( 0.75)
      H 12            1s( 0.75)
      H 13            1s( 0.75)
      H 14            1s( 0.79)
      H 15            1s( 0.79)
      H 16            1s( 0.77)
      H 17            1s( 0.77)


 NATURAL BOND ORBITAL ANALYSIS:

                            Occupancies       Lewis Structure    Low   High
         Max    Occ     -------------------  -----------------   occ   occ
  Cycle  Ctr   Thresh    Lewis   non-Lewis     CR  BD  nC  LP    (L)   (NL)
 ============================================================================
    1     2     1.90    50.50188   1.49812      7  18   0   1     1      2
    2     2     1.88    51.38276   0.61724      7  19   0   0     0      1
 ----------------------------------------------------------------------------

 Structure accepted: No low occupancy Lewis orbitals

 -------------------------------------------------------
   Core                     13.99255 ( 99.947% of  14)
   Valence Lewis            37.39022 ( 98.395% of  38)
  ==================      =============================
   Total Lewis              51.38276 ( 98.813% of  52)
  -----------------------------------------------------
   Valence non-Lewis         0.52525 (  1.010% of  52)
   Rydberg non-Lewis         0.09198 (  0.177% of  52)
  ==================      =============================
   Total non-Lewis           0.61724 (  1.187% of  52)
 -------------------------------------------------------


     (Occupancy)   Bond orbital / Coefficients / Hybrids
 ------------------ Lewis ------------------------------------------------------
   1. (1.99918) CR ( 1) C  1            s(100.00%)
                                         1.0000  0.0000  0.0000  0.0000  0.0000
                                         0.0000  0.0000  0.0000  0.0000  0.0000
                                         0.0000  0.0000  0.0000  0.0000
   2. (1.99896) CR ( 1) C  2            s(100.00%)
                                         1.0000  0.0000  0.0000  0.0000  0.0000
                                         0.0000  0.0000  0.0000  0.0000  0.0000
                                         0.0000  0.0000  0.0000  0.0000
   3. (1.99904) CR ( 1) C  3            s(100.00%)
                                         1.0000  0.0000  0.0000  0.0000  0.0000
                                         0.0000  0.0000  0.0000  0.0000  0.0000
                                         0.0000  0.0000  0.0000  0.0000
   4. (1.99888) CR ( 1) C  4            s(100.00%)
                                         1.0000  0.0000  0.0000  0.0000  0.0000
                                         0.0000  0.0000  0.0000  0.0000  0.0000
                                         0.0000  0.0000  0.0000  0.0000
   5. (1.99885) CR ( 1) C  5            s(100.00%)
                                         1.0000  0.0000  0.0000  0.0000  0.0000
                                         0.0000  0.0000  0.0000  0.0000  0.0000
                                         0.0000  0.0000  0.0000  0.0000
   6. (1.99876) CR ( 1) C  6            s(100.00%)
                                         1.0000  0.0000  0.0000  0.0000  0.0000
                                         0.0000  0.0000  0.0000  0.0000  0.0000
                                         0.0000  0.0000  0.0000  0.0000
   7. (1.99887) CR ( 1) C  7            s(100.00%)
                                         1.0000  0.0000  0.0000  0.0000  0.0000
                                         0.0000  0.0000  0.0000  0.0000  0.0000
                                         0.0000  0.0000  0.0000  0.0000
   8. (1.97562) BD ( 1) C  1- C  2
               ( 48.95%)   0.6997* C  1 s( 30.61%)p 2.27( 69.36%)d 0.00(  0.03%)
                                         0.0000  0.5532  0.0002  0.7701  0.0022
                                        -0.0700  0.0008  0.3090 -0.0109 -0.0025
                                         0.0108 -0.0008  0.0139 -0.0056
               ( 51.05%)   0.7145* C  2 s( 27.29%)p 2.66( 72.68%)d 0.00(  0.03%)
                                         0.0000  0.5222  0.0118 -0.7876  0.0023
                                         0.0679  0.0015 -0.3187 -0.0163 -0.0038
                                         0.0098 -0.0006  0.0130 -0.0055
   9. (1.98606) BD ( 1) C  1- H  8
               ( 61.33%)   0.7831* C  1 s( 23.04%)p 3.34( 76.92%)d 0.00(  0.04%)
                                         0.0000  0.4800  0.0013 -0.1722 -0.0130
                                        -0.6396  0.0082 -0.5746 -0.0023  0.0039
                                         0.0037  0.0165 -0.0091  0.0027
               ( 38.67%)   0.6219* H  8 s( 99.91%)p 0.00(  0.09%)
                                         0.9995 -0.0014  0.0066  0.0217  0.0199
  10. (1.98693) BD ( 1) C  1- H  9
               ( 61.30%)   0.7830* C  1 s( 23.12%)p 3.32( 76.84%)d 0.00(  0.04%)
                                         0.0000  0.4808  0.0023 -0.1089 -0.0137
                                         0.7638 -0.0066 -0.4159 -0.0036 -0.0024
                                         0.0014 -0.0139 -0.0131 -0.0034
               ( 38.70%)   0.6221* H  9 s( 99.91%)p 0.00(  0.09%)
                                         0.9995 -0.0012  0.0050 -0.0263  0.0149
  11. (1.98819) BD ( 1) C  1- H 10
               ( 61.23%)   0.7825* C  1 s( 23.18%)p 3.31( 76.78%)d 0.00(  0.04%)
                                         0.0000  0.4815 -0.0026 -0.6039 -0.0142
                                        -0.0446  0.0037  0.6330 -0.0117  0.0012
                                        -0.0165 -0.0013  0.0076  0.0065
               ( 38.77%)   0.6226* H 10 s( 99.91%)p 0.00(  0.09%)
                                         0.9995 -0.0027  0.0218  0.0010 -0.0215
  12. (1.96932) BD ( 1) C  2- C  3
               ( 50.32%)   0.7094* C  2 s( 25.95%)p 2.85( 74.01%)d 0.00(  0.04%)
                                         0.0000  0.5094 -0.0024  0.1172  0.0012
                                        -0.7604 -0.0076  0.3840 -0.0259 -0.0038
                                         0.0039 -0.0145 -0.0111 -0.0002
               ( 49.68%)   0.7048* C  3 s( 27.57%)p 2.63( 72.39%)d 0.00(  0.04%)
                                         0.0000  0.5251  0.0001 -0.1398  0.0037
                                         0.6917 -0.0167 -0.4747 -0.0172 -0.0031
                                         0.0031 -0.0128 -0.0128 -0.0038
  13. (1.96878) BD ( 1) C  2- C  7
               ( 51.11%)   0.7149* C  2 s( 26.13%)p 2.83( 73.83%)d 0.00(  0.04%)
                                         0.0000  0.5112 -0.0020  0.1756  0.0050
                                         0.6432  0.0179  0.5414 -0.0190  0.0044
                                         0.0051  0.0160 -0.0086  0.0034
               ( 48.89%)   0.6992* C  7 s( 32.36%)p 2.09( 67.60%)d 0.00(  0.04%)
                                         0.0000  0.5688 -0.0031 -0.2117 -0.0008
                                        -0.5234  0.0324 -0.5965 -0.0197  0.0044
                                         0.0071  0.0152 -0.0118  0.0029
  14. (1.95174) BD ( 1) C  2- H 11
               ( 62.42%)   0.7901* C  2 s( 20.56%)p 3.86( 79.41%)d 0.00(  0.03%)
                                         0.0000  0.4534 -0.0054  0.5783 -0.0043
                                         0.0512 -0.0020 -0.6760  0.0038  0.0030
                                        -0.0152 -0.0024  0.0073  0.0051
               ( 37.58%)   0.6130* H 11 s( 99.88%)p 0.00(  0.12%)
                                         0.9994 -0.0071 -0.0226 -0.0016  0.0257
  15. (1.96828) BD ( 1) C  3- C  4
               ( 50.04%)   0.7074* C  3 s( 27.98%)p 2.57( 71.98%)d 0.00(  0.04%)
                                         0.0000  0.5289 -0.0001  0.4025  0.0006
                                         0.1775 -0.0171  0.7253  0.0029  0.0048
                                         0.0132  0.0084  0.0018  0.0110
               ( 49.96%)   0.7068* C  4 s( 29.86%)p 2.35( 70.11%)d 0.00(  0.04%)
                                         0.0000  0.5463 -0.0113 -0.3648  0.0114
                                        -0.2879 -0.0268 -0.6955  0.0230  0.0026
                                         0.0143  0.0061 -0.0010  0.0105
  16. (1.97425) BD ( 1) C  3- H 12
               ( 62.21%)   0.7887* C  3 s( 22.74%)p 3.40( 77.23%)d 0.00(  0.03%)
                                         0.0000  0.4768  0.0048  0.4646 -0.0106
                                        -0.5853 -0.0054 -0.4623 -0.0002 -0.0109
                                        -0.0085  0.0108 -0.0016 -0.0027
               ( 37.79%)   0.6147* H 12 s( 99.90%)p 0.00(  0.10%)
                                         0.9995 -0.0018 -0.0172  0.0211  0.0166
  17. (1.96507) BD ( 1) C  3- H 13
               ( 62.08%)   0.7879* C  3 s( 21.62%)p 3.62( 78.34%)d 0.00(  0.03%)
                                         0.0000  0.4650 -0.0020 -0.7759  0.0063
                                        -0.3833 -0.0172  0.1850 -0.0041  0.0103
                                        -0.0081 -0.0030  0.0099 -0.0068
               ( 37.92%)   0.6158* H 13 s( 99.89%)p 0.00(  0.11%)
                                         0.9995 -0.0031  0.0286  0.0145 -0.0071
  18. (1.98291) BD ( 1) C  4- C  5
               ( 52.12%)   0.7219* C  4 s( 39.10%)p 1.56( 60.86%)d 0.00(  0.04%)
                                         0.0000  0.6250  0.0198  0.3042  0.0095
                                        -0.4823 -0.0154  0.5320  0.0111 -0.0078
                                         0.0112 -0.0126 -0.0054  0.0041
               ( 47.88%)   0.6920* C  5 s( 41.42%)p 1.41( 58.51%)d 0.00(  0.07%)
                                         0.0000  0.6436  0.0082 -0.3534 -0.0039
                                         0.4585  0.0094 -0.4998 -0.0094 -0.0113
                                         0.0152 -0.0159 -0.0061  0.0046
  19. (1.91840) BD ( 2) C  4- C  5
               ( 48.53%)   0.6967* C  4 s(  0.04%)p99.99( 99.91%)d 1.09(  0.05%)
                                         0.0000  0.0208 -0.0008  0.8795 -0.0102
                                         0.0621 -0.0005 -0.4709  0.0005 -0.0081
                                         0.0094  0.0060  0.0096 -0.0137
               ( 51.47%)   0.7174* C  5 s(  0.04%)p99.99( 99.91%)d 1.41(  0.05%)
                                         0.0000  0.0193  0.0038  0.8605 -0.0207
                                         0.0911  0.0006 -0.4999  0.0069  0.0116
                                        -0.0081 -0.0089 -0.0098  0.0131
  20. (1.96638) BD ( 1) C  4- C  6
               ( 50.62%)   0.7115* C  4 s( 30.78%)p 2.25( 69.18%)d 0.00(  0.04%)
                                         0.0000  0.5547 -0.0093 -0.0155  0.0125
                                         0.8245 -0.0067  0.1040  0.0259 -0.0015
                                         0.0030  0.0031 -0.0172 -0.0077
               ( 49.38%)   0.7027* C  6 s( 32.92%)p 2.04( 67.03%)d 0.00(  0.05%)
                                         0.0000  0.5737 -0.0031  0.0691  0.0118
                                        -0.8142  0.0092  0.0403  0.0293 -0.0010
                                         0.0032  0.0044 -0.0200 -0.0077
  21. (1.98290) BD ( 1) C  5- H 14
               ( 60.35%)   0.7768* C  5 s( 29.23%)p 2.42( 70.74%)d 0.00(  0.03%)
                                         0.0000  0.5406 -0.0049  0.0249  0.0101
                                        -0.8357 -0.0102 -0.0888  0.0171  0.0005
                                         0.0013  0.0059 -0.0157 -0.0075
               ( 39.65%)   0.6297* H 14 s( 99.90%)p 0.00(  0.10%)
                                         0.9995 -0.0015 -0.0008  0.0313  0.0037
  22. (1.98088) BD ( 1) C  5- H 15
               ( 60.35%)   0.7768* C  5 s( 29.25%)p 2.42( 70.71%)d 0.00(  0.04%)
                                         0.0000  0.5408 -0.0013  0.3648  0.0070
                                         0.2868 -0.0171  0.7010  0.0102  0.0054
                                         0.0114  0.0113 -0.0014  0.0089
               ( 39.65%)   0.6297* H 15 s( 99.91%)p 0.00(  0.09%)
                                         0.9995 -0.0019 -0.0130 -0.0104 -0.0252
  23. (1.98020) BD ( 1) C  6- C  7
               ( 50.38%)   0.7098* C  6 s( 37.33%)p 1.68( 62.61%)d 0.00(  0.06%)
                                         0.0000  0.6108  0.0177 -0.3214  0.0024
                                         0.3733  0.0463 -0.6174  0.0090 -0.0057
                                         0.0157 -0.0113 -0.0028  0.0134
               ( 49.62%)   0.7044* C  7 s( 37.96%)p 1.63( 61.99%)d 0.00(  0.06%)
                                         0.0000  0.6159  0.0160  0.2836  0.0077
                                        -0.2354  0.0364  0.6942  0.0282 -0.0057
                                         0.0141 -0.0120 -0.0028  0.0134
  24. (1.88092) BD ( 2) C  6- C  7
               ( 50.62%)   0.7115* C  6 s(  0.02%)p99.99( 99.91%)d 3.34(  0.07%)
                                         0.0000  0.0137  0.0053  0.9055 -0.0117
                                         0.0656  0.0026 -0.4180 -0.0018  0.0012
                                        -0.0176 -0.0021 -0.0101  0.0174
               ( 49.38%)   0.7027* C  7 s(  0.01%)p 1.00( 99.92%)d 0.00(  0.07%)
                                         0.0000  0.0076  0.0057  0.9278 -0.0183
                                         0.0523 -0.0006 -0.3680  0.0000 -0.0129
                                         0.0155  0.0059  0.0096 -0.0141
  25. (1.98044) BD ( 1) C  6- H 16
               ( 61.84%)   0.7864* C  6 s( 29.55%)p 2.38( 70.42%)d 0.00(  0.03%)
                                         0.0000  0.5435 -0.0112  0.2665 -0.0015
                                         0.4385  0.0028  0.6640 -0.0040  0.0049
                                         0.0077  0.0122 -0.0035  0.0069
               ( 38.16%)   0.6178* H 16 s( 99.90%)p 0.00(  0.10%)
                                         0.9995 -0.0024 -0.0098 -0.0171 -0.0245
  26. (1.98294) BD ( 1) C  7- H 17
               ( 61.56%)   0.7846* C  7 s( 29.46%)p 2.39( 70.51%)d 0.00(  0.03%)
                                         0.0000  0.5427 -0.0095 -0.1133  0.0025
                                         0.8167  0.0051 -0.1586  0.0053 -0.0031
                                         0.0010 -0.0042 -0.0139 -0.0074
               ( 38.44%)   0.6200* H 17 s( 99.89%)p 0.00(  0.11%)
                                         0.9994 -0.0025  0.0040 -0.0326  0.0055
 ---------------- non-Lewis ----------------------------------------------------
  27. (0.01860) BD*( 1) C  1- C  2
               ( 51.05%)   0.7145* C  1 s( 30.61%)p 2.27( 69.36%)d 0.00(  0.03%)
                                         0.0000  0.5532  0.0002  0.7701  0.0022
                                        -0.0700  0.0008  0.3090 -0.0109 -0.0025
                                         0.0108 -0.0008  0.0139 -0.0056
               ( 48.95%)  -0.6997* C  2 s( 27.29%)p 2.66( 72.68%)d 0.00(  0.03%)
                                         0.0000  0.5222  0.0118 -0.7876  0.0023
                                         0.0679  0.0015 -0.3187 -0.0163 -0.0038
                                         0.0098 -0.0006  0.0130 -0.0055
  28. (0.00746) BD*( 1) C  1- H  8
               ( 38.67%)   0.6219* C  1 s( 23.04%)p 3.34( 76.92%)d 0.00(  0.04%)
                                         0.0000 -0.4800 -0.0013  0.1722  0.0130
                                         0.6396 -0.0082  0.5746  0.0023 -0.0039
                                        -0.0037 -0.0165  0.0091 -0.0027
               ( 61.33%)  -0.7831* H  8 s( 99.91%)p 0.00(  0.09%)
                                        -0.9995  0.0014 -0.0066 -0.0217 -0.0199
  29. (0.00723) BD*( 1) C  1- H  9
               ( 38.70%)   0.6221* C  1 s( 23.12%)p 3.32( 76.84%)d 0.00(  0.04%)
                                         0.0000 -0.4808 -0.0023  0.1089  0.0137
                                        -0.7638  0.0066  0.4159  0.0036  0.0024
                                        -0.0014  0.0139  0.0131  0.0034
               ( 61.30%)  -0.7830* H  9 s( 99.91%)p 0.00(  0.09%)
                                        -0.9995  0.0012 -0.0050  0.0263 -0.0149
  30. (0.01012) BD*( 1) C  1- H 10
               ( 38.77%)   0.6226* C  1 s( 23.18%)p 3.31( 76.78%)d 0.00(  0.04%)
                                         0.0000 -0.4815  0.0026  0.6039  0.0142
                                         0.0446 -0.0037 -0.6330  0.0117 -0.0012
                                         0.0165  0.0013 -0.0076 -0.0065
               ( 61.23%)  -0.7825* H 10 s( 99.91%)p 0.00(  0.09%)
                                        -0.9995  0.0027 -0.0218 -0.0010  0.0215
  31. (0.02089) BD*( 1) C  2- C  3
               ( 49.68%)   0.7048* C  2 s( 25.95%)p 2.85( 74.01%)d 0.00(  0.04%)
                                         0.0000 -0.5094  0.0024 -0.1172 -0.0012
                                         0.7604  0.0076 -0.3840  0.0259  0.0038
                                        -0.0039  0.0145  0.0111  0.0002
               ( 50.32%)  -0.7094* C  3 s( 27.57%)p 2.63( 72.39%)d 0.00(  0.04%)
                                         0.0000 -0.5251 -0.0001  0.1398 -0.0037
                                        -0.6917  0.0167  0.4747  0.0172  0.0031
                                        -0.0031  0.0128  0.0128  0.0038
  32. (0.02708) BD*( 1) C  2- C  7
               ( 48.89%)   0.6992* C  2 s( 26.13%)p 2.83( 73.83%)d 0.00(  0.04%)
                                         0.0000 -0.5112  0.0020 -0.1756 -0.0050
                                        -0.6432 -0.0179 -0.5414  0.0190 -0.0044
                                        -0.0051 -0.0160  0.0086 -0.0034
               ( 51.11%)  -0.7149* C  7 s( 32.36%)p 2.09( 67.60%)d 0.00(  0.04%)
                                         0.0000 -0.5688  0.0031  0.2117  0.0008
                                         0.5234 -0.0324  0.5965  0.0197 -0.0044
                                        -0.0071 -0.0152  0.0118 -0.0029
  33. (0.02960) BD*( 1) C  2- H 11
               ( 37.58%)   0.6130* C  2 s( 20.56%)p 3.86( 79.41%)d 0.00(  0.03%)
                                         0.0000 -0.4534  0.0054 -0.5783  0.0043
                                        -0.0512  0.0020  0.6760 -0.0038 -0.0030
                                         0.0152  0.0024 -0.0073 -0.0051
               ( 62.42%)  -0.7901* H 11 s( 99.88%)p 0.00(  0.12%)
                                        -0.9994  0.0071  0.0226  0.0016 -0.0257
  34. (0.03002) BD*( 1) C  3- C  4
               ( 49.96%)   0.7068* C  3 s( 27.98%)p 2.57( 71.98%)d 0.00(  0.04%)
                                         0.0000 -0.5289  0.0001 -0.4025 -0.0006
                                        -0.1775  0.0171 -0.7253 -0.0029 -0.0048
                                        -0.0132 -0.0084 -0.0018 -0.0110
               ( 50.04%)  -0.7074* C  4 s( 29.86%)p 2.35( 70.11%)d 0.00(  0.04%)
                                         0.0000 -0.5463  0.0113  0.3648 -0.0114
                                         0.2879  0.0268  0.6955 -0.0230 -0.0026
                                        -0.0143 -0.0061  0.0010 -0.0105
  35. (0.01243) BD*( 1) C  3- H 12
               ( 37.79%)   0.6147* C  3 s( 22.74%)p 3.40( 77.23%)d 0.00(  0.03%)
                                         0.0000 -0.4768 -0.0048 -0.4646  0.0106
                                         0.5853  0.0054  0.4623  0.0002  0.0109
                                         0.0085 -0.0108  0.0016  0.0027
               ( 62.21%)  -0.7887* H 12 s( 99.90%)p 0.00(  0.10%)
                                        -0.9995  0.0018  0.0172 -0.0211 -0.0166
  36. (0.01558) BD*( 1) C  3- H 13
               ( 37.92%)   0.6158* C  3 s( 21.62%)p 3.62( 78.34%)d 0.00(  0.03%)
                                         0.0000 -0.4650  0.0020  0.7759 -0.0063
                                         0.3833  0.0172 -0.1850  0.0041 -0.0103
                                         0.0081  0.0030 -0.0099  0.0068
               ( 62.08%)  -0.7879* H 13 s( 99.89%)p 0.00(  0.11%)
                                        -0.9995  0.0031 -0.0286 -0.0145  0.0071
  37. (0.01714) BD*( 1) C  4- C  5
               ( 47.88%)   0.6920* C  4 s( 39.10%)p 1.56( 60.86%)d 0.00(  0.04%)
                                         0.0000 -0.6250 -0.0198 -0.3042 -0.0095
                                         0.4823  0.0154 -0.5320 -0.0111  0.0078
                                        -0.0112  0.0126  0.0054 -0.0041
               ( 52.12%)  -0.7219* C  5 s( 41.42%)p 1.41( 58.51%)d 0.00(  0.07%)
                                         0.0000 -0.6436 -0.0082  0.3534  0.0039
                                        -0.4585 -0.0094  0.4998  0.0094  0.0113
                                        -0.0152  0.0159  0.0061 -0.0046
  38. (0.13033) BD*( 2) C  4- C  5
               ( 51.47%)   0.7174* C  4 s(  0.04%)p99.99( 99.91%)d 1.09(  0.05%)
                                         0.0000  0.0208 -0.0008  0.8795 -0.0102
                                         0.0621 -0.0005 -0.4709  0.0005 -0.0081
                                         0.0094  0.0060  0.0096 -0.0137
               ( 48.53%)  -0.6967* C  5 s(  0.04%)p99.99( 99.91%)d 1.41(  0.05%)
                                         0.0000  0.0193  0.0038  0.8605 -0.0207
                                         0.0911  0.0006 -0.4999  0.0069  0.0116
                                        -0.0081 -0.0089 -0.0098  0.0131
  39. (0.03326) BD*( 1) C  4- C  6
               ( 49.38%)   0.7027* C  4 s( 30.78%)p 2.25( 69.18%)d 0.00(  0.04%)
                                         0.0000 -0.5547  0.0093  0.0155 -0.0125
                                        -0.8245  0.0067 -0.1040 -0.0259  0.0015
                                        -0.0030 -0.0031  0.0172  0.0077
               ( 50.62%)  -0.7115* C  6 s( 32.92%)p 2.04( 67.03%)d 0.00(  0.05%)
                                         0.0000 -0.5737  0.0031 -0.0691 -0.0118
                                         0.8142 -0.0092 -0.0403 -0.0293  0.0010
                                        -0.0032 -0.0044  0.0200  0.0077
  40. (0.00914) BD*( 1) C  5- H 14
               ( 39.65%)   0.6297* C  5 s( 29.23%)p 2.42( 70.74%)d 0.00(  0.03%)
                                         0.0000 -0.5406  0.0049 -0.0249 -0.0101
                                         0.8357  0.0102  0.0888 -0.0171 -0.0005
                                        -0.0013 -0.0059  0.0157  0.0075
               ( 60.35%)  -0.7768* H 14 s( 99.90%)p 0.00(  0.10%)
                                        -0.9995  0.0015  0.0008 -0.0313 -0.0037
  41. (0.00933) BD*( 1) C  5- H 15
               ( 39.65%)   0.6297* C  5 s( 29.25%)p 2.42( 70.71%)d 0.00(  0.04%)
                                         0.0000 -0.5408  0.0013 -0.3648 -0.0070
                                        -0.2868  0.0171 -0.7010 -0.0102 -0.0054
                                        -0.0114 -0.0113  0.0014 -0.0089
               ( 60.35%)  -0.7768* H 15 s( 99.91%)p 0.00(  0.09%)
                                        -0.9995  0.0019  0.0130  0.0104  0.0252
  42. (0.01167) BD*( 1) C  6- C  7
               ( 49.62%)   0.7044* C  6 s( 37.33%)p 1.68( 62.61%)d 0.00(  0.06%)
                                         0.0000 -0.6108 -0.0177  0.3214 -0.0024
                                        -0.3733 -0.0463  0.6174 -0.0090  0.0057
                                        -0.0157  0.0113  0.0028 -0.0134
               ( 50.38%)  -0.7098* C  7 s( 37.96%)p 1.63( 61.99%)d 0.00(  0.06%)
                                         0.0000 -0.6159 -0.0160 -0.2836 -0.0077
                                         0.2354 -0.0364 -0.6942 -0.0282  0.0057
                                        -0.0141  0.0120  0.0028 -0.0134
  43. (0.09705) BD*( 2) C  6- C  7
               ( 49.38%)   0.7027* C  6 s(  0.02%)p99.99( 99.91%)d 3.34(  0.07%)
                                         0.0000  0.0137  0.0053  0.9055 -0.0117
                                         0.0656  0.0026 -0.4180 -0.0018  0.0012
                                        -0.0176 -0.0021 -0.0101  0.0174
               ( 50.62%)  -0.7115* C  7 s(  0.01%)p 1.00( 99.92%)d 0.00(  0.07%)
                                         0.0000  0.0076  0.0057  0.9278 -0.0183
                                         0.0523 -0.0006 -0.3680  0.0000 -0.0129
                                         0.0155  0.0059  0.0096 -0.0141
  44. (0.01959) BD*( 1) C  6- H 16
               ( 38.16%)   0.6178* C  6 s( 29.55%)p 2.38( 70.42%)d 0.00(  0.03%)
                                         0.0000 -0.5435  0.0112 -0.2665  0.0015
                                        -0.4385 -0.0028 -0.6640  0.0040 -0.0049
                                        -0.0077 -0.0122  0.0035 -0.0069
               ( 61.84%)  -0.7864* H 16 s( 99.90%)p 0.00(  0.10%)
                                        -0.9995  0.0024  0.0098  0.0171  0.0245
  45. (0.01871) BD*( 1) C  7- H 17
               ( 38.44%)   0.6200* C  7 s( 29.46%)p 2.39( 70.51%)d 0.00(  0.03%)
                                         0.0000 -0.5427  0.0095  0.1133 -0.0025
                                        -0.8167 -0.0051  0.1586 -0.0053  0.0031
                                        -0.0010  0.0042  0.0139  0.0074
               ( 61.56%)  -0.7846* H 17 s( 99.89%)p 0.00(  0.11%)
                                        -0.9994  0.0025 -0.0040  0.0326 -0.0055
  46. (0.00306) RY ( 1) C  1            s(  3.45%)p25.41( 87.56%)d 2.61(  8.99%)
                                         0.0000  0.0060  0.1855  0.0012 -0.0118
                                         0.0114  0.7309  0.0080  0.5840  0.1961
                                         0.1537  0.1283 -0.0474  0.0955
  47. (0.00299) RY ( 2) C  1            s(  4.15%)p21.15( 87.75%)d 1.95(  8.10%)
                                         0.0000  0.0092  0.2035 -0.0008 -0.1430
                                        -0.0096 -0.6107  0.0109  0.6956 -0.1396
                                         0.1654 -0.0904 -0.1401  0.0797
  48. (0.00051) RY ( 3) C  1            s( 37.90%)p 1.61( 60.93%)d 0.03(  1.18%)
                                         0.0000  0.0133  0.6155 -0.0111  0.7742
                                         0.0004 -0.0827 -0.0038 -0.0537  0.0102
                                        -0.0844  0.0270  0.0505 -0.0357
  49. (0.00014) RY ( 4) C  1            s( 40.96%)p 0.85( 34.82%)d 0.59( 24.22%)
                                         0.0000 -0.0128  0.6399  0.0099 -0.5780
                                        -0.0011  0.0382 -0.0030 -0.1118 -0.0039
                                        -0.3696  0.0243  0.2062 -0.2500
  50. (0.00005) RY ( 5) C  1            s(  6.74%)p 1.57( 10.55%)d12.27( 82.70%)
  51. (0.00003) RY ( 6) C  1            s(  0.00%)p 1.00(  6.54%)d14.29( 93.46%)
  52. (0.00001) RY ( 7) C  1            s(  3.10%)p 1.69(  5.26%)d29.52( 91.64%)
  53. (0.00000) RY ( 8) C  1            s(  0.02%)p99.99(  2.36%)d99.99( 97.62%)
  54. (0.00000) RY ( 9) C  1            s(  3.74%)p 1.16(  4.33%)d24.60( 91.93%)
  55. (0.00361) RY ( 1) C  2            s(  0.09%)p99.99( 90.82%)d99.99(  9.09%)
                                         0.0000  0.0277  0.0119 -0.0078  0.1673
                                        -0.0023 -0.2645  0.0219  0.8998 -0.0264
                                        -0.0795 -0.0278  0.2173  0.1893
  56. (0.00254) RY ( 2) C  2            s( 16.91%)p 3.83( 64.72%)d 1.09( 18.36%)
                                         0.0000 -0.0080  0.4111  0.0163  0.7776
                                         0.0011 -0.1218 -0.0093 -0.1656 -0.1365
                                         0.4039  0.0174  0.0324  0.0229
  57. (0.00174) RY ( 3) C  2            s(  2.36%)p38.10( 90.07%)d 3.20(  7.56%)
                                         0.0000  0.0016  0.1537  0.0009  0.0961
                                        -0.0127  0.9157 -0.0018  0.2298 -0.1965
                                        -0.0310 -0.1887  0.0028  0.0210
  58. (0.00083) RY ( 4) C  2            s( 36.04%)p 0.49( 17.74%)d 1.28( 46.22%)
                                         0.0000  0.0005  0.6003  0.0090 -0.4171
                                        -0.0009  0.0149  0.0028  0.0561  0.5068
                                         0.3785 -0.1530  0.1167  0.1583
  59. (0.00051) RY ( 5) C  2            s(  9.61%)p 1.35( 12.95%)d 8.06( 77.44%)
                                         0.0000 -0.0011  0.3100  0.0001 -0.2827
                                         0.0139 -0.2133 -0.0005 -0.0626 -0.6672
                                        -0.0751 -0.2550 -0.2989  0.4114
  60. (0.00037) RY ( 6) C  2            s(  9.76%)p 0.43(  4.15%)d 8.82( 86.09%)
                                         0.0000  0.0038  0.3124  0.0100 -0.1125
                                         0.0105 -0.1527  0.0102  0.0723 -0.2257
                                        -0.1497 -0.2856  0.1797 -0.8208
  61. (0.00026) RY ( 7) C  2            s( 21.73%)p 0.05(  0.98%)d 3.56( 77.29%)
                                         0.0000  0.0033  0.4662 -0.0038  0.0113
                                        -0.0153  0.0446 -0.0023  0.0861  0.0701
                                        -0.4227  0.6906 -0.3258 -0.0789
  62. (0.00016) RY ( 8) C  2            s(  0.03%)p99.99(  7.00%)d99.99( 92.97%)
                                         0.0000 -0.0031  0.0165  0.0109 -0.2370
                                        -0.0115  0.0684  0.0068 -0.0943 -0.3904
                                         0.2085  0.5009  0.6919  0.0643
  63. (0.00002) RY ( 9) C  2            s(  3.54%)p 3.28( 11.62%)d23.96( 84.84%)
  64. (0.00441) RY ( 1) C  3            s(  5.73%)p15.54( 89.02%)d 0.92(  5.25%)
                                         0.0000  0.0159  0.2388 -0.0166 -0.7638
                                         0.0104  0.5374  0.0072  0.1329 -0.1123
                                         0.0161  0.1698 -0.0961 -0.0391
  65. (0.00241) RY ( 2) C  3            s(  1.25%)p69.18( 86.33%)d 9.95( 12.42%)
                                         0.0000  0.0181  0.1102 -0.0012  0.5160
                                         0.0063  0.4652 -0.0027  0.6169  0.1081
                                        -0.0945  0.1262 -0.1991 -0.2192
  66. (0.00209) RY ( 3) C  3            s( 34.69%)p 1.66( 57.53%)d 0.22(  7.78%)
                                         0.0000 -0.0108  0.5889 -0.0049 -0.1189
                                         0.0014 -0.5391 -0.0043  0.5201 -0.1824
                                         0.0621 -0.1592  0.0037  0.1236
  67. (0.00092) RY ( 4) C  3            s( 55.47%)p 0.67( 37.05%)d 0.13(  7.48%)
                                         0.0000  0.0005  0.7448  0.0047  0.2572
                                        -0.0048  0.2219  0.0032 -0.5049  0.1734
                                         0.1415 -0.0449  0.1247 -0.0846
  68. (0.00040) RY ( 5) C  3            s(  1.32%)p 1.26(  1.66%)d73.40( 97.02%)
                                         0.0000  0.0011  0.1150 -0.0026  0.0478
                                        -0.0005  0.0718  0.0026 -0.0957  0.1360
                                        -0.5651 -0.0070 -0.3755  0.7009
  69. (0.00008) RY ( 6) C  3            s(  0.10%)p31.18(  3.11%)d99.99( 96.79%)
  70. (0.00005) RY ( 7) C  3            s(  1.39%)p 8.25( 11.43%)d62.88( 87.18%)
  71. (0.00004) RY ( 8) C  3            s(  0.03%)p99.99( 11.75%)d99.99( 88.21%)
  72. (0.00001) RY ( 9) C  3            s(  0.10%)p21.06(  2.17%)d99.99( 97.73%)
  73. (0.00467) RY ( 1) C  4            s(  8.68%)p 9.51( 82.57%)d 1.01(  8.74%)
                                         0.0000  0.0398  0.2919 -0.0115 -0.2530
                                         0.0100  0.4250 -0.0185 -0.7619 -0.1143
                                         0.0235 -0.2591 -0.0550  0.0604
  74. (0.00314) RY ( 2) C  4            s(  2.00%)p43.20( 86.21%)d 5.91( 11.79%)
                                         0.0000  0.0039  0.1412 -0.0011  0.0898
                                        -0.0044  0.7957 -0.0041  0.4699  0.0507
                                         0.1730 -0.0078  0.2089  0.2042
  75. (0.00229) RY ( 3) C  4            s(  7.87%)p 8.25( 65.00%)d 3.44( 27.12%)
                                         0.0000 -0.0123  0.2803  0.0153  0.7915
                                         0.0053 -0.0529 -0.0128 -0.1424  0.2010
                                        -0.2035 -0.1017 -0.2355  0.3516
  76. (0.00148) RY ( 4) C  4            s( 75.61%)p 0.20( 15.40%)d 0.12(  9.00%)
                                         0.0000 -0.0169  0.8694 -0.0127 -0.1171
                                         0.0127 -0.2770 -0.0099  0.2512 -0.2174
                                         0.1264 -0.0382  0.0479 -0.1516
  77. (0.00060) RY ( 5) C  4            s(  0.48%)p14.76(  7.12%)d99.99( 92.40%)
                                         0.0000 -0.0009  0.0694  0.0042 -0.2329
                                         0.0015 -0.0675 -0.0039  0.1111  0.8089
                                         0.0673 -0.4919 -0.0900 -0.1227
  78. (0.00026) RY ( 6) C  4            s(  0.00%)p 1.00( 12.29%)d 7.14( 87.71%)
                                         0.0000  0.0020 -0.0019 -0.0042  0.1092
                                        -0.0199  0.2968 -0.0107  0.1495 -0.1368
                                        -0.3734 -0.0741 -0.5330 -0.6552
  79. (0.00021) RY ( 7) C  4            s(  3.98%)p 1.26(  4.99%)d22.90( 91.03%)
                                         0.0000  0.0103  0.1991  0.0014 -0.1314
                                        -0.0056  0.1040  0.0052 -0.1475  0.4320
                                         0.0650  0.8143 -0.2346 -0.0374
  80. (0.00003) RY ( 8) C  4            s(  0.10%)p99.99( 20.60%)d99.99( 79.29%)
  81. (0.00001) RY ( 9) C  4            s(  1.50%)p 3.85(  5.75%)d61.97( 92.75%)
  82. (0.00524) RY ( 1) C  5            s(  0.17%)p99.99( 94.71%)d30.22(  5.12%)
[...]
  7 H                 0.0      -0.0       0.1       0.1      -0.6      -0.1
  8 H                 0.1      -0.0       0.1      -0.2      -0.0      -0.0
  9 H                 0.2      -0.1       0.0      -0.5       0.0      -0.0
 10 H                -3.2      -1.6     -13.3      -0.4      -0.1      -0.0
 11 H                -0.1       0.1       0.2      -8.6      -2.8      -8.0
 12 H                 0.4      -0.1       0.0     -10.8      -3.9     -24.1
 13 H                 0.0       0.0      -0.0      -0.0      -0.6      -1.5
 14 H                -0.0       0.0      -0.0      -0.0       0.2       0.1
 16 H                -0.5       0.0      -0.1       0.0      -0.0      -0.0

                     66        67        68        69        70        71   
                   0.00000   0.00000   0.00000   0.00000   0.00000   0.00000
                   0.00092   0.00040   0.00008   0.00005   0.00004   0.00001
                  --------  --------  --------  --------  --------  --------
  0 C                 0.8       0.2       0.1       0.0       0.1      -0.0
  1 C               -95.0      -3.3      -1.1      -1.7      -2.8      -1.5
  2 C               245.1     109.6     104.4     117.6     116.0     108.8
  3 C               -31.3      -2.0      -1.0      -4.8      -2.5      -2.4
  4 C                -1.6      -0.1       0.4       0.5       0.0      -0.3
  5 C                -0.1      -0.0      -0.7       1.6       0.5      -0.0
  6 C                 5.5       0.3       0.1      -0.8      -0.0       0.1
  8 H                -0.2      -0.0       0.0      -0.0      -0.0      -0.0
  9 H                -0.1      -0.0       0.0      -0.0       0.0      -0.1
 10 H                 1.4      -0.2      -0.0      -0.1       0.1      -0.0
 11 H               -23.2      -1.7      -1.6     -11.0      -1.6      -1.6
 12 H                -1.5      -2.7      -0.6      -1.1      -9.7      -3.0
 13 H                 0.0       0.0       0.1      -0.1      -0.1      -0.0
 16 H                 0.1      -0.0      -0.0      -0.0      -0.0      -0.0

                     72        73        74        75        76        77   
                   0.00000   0.00000   0.00000   0.00000   0.00000   0.00000
                   0.00467   0.00314   0.00229   0.00148   0.00060   0.00026
                  --------  --------  --------  --------  --------  --------
  0 C                -0.3      -0.1      -0.1      -0.1      -0.0       0.0
  1 C                 6.3      -1.6      -0.0       0.6      -0.3      -0.4
  2 C               -59.9     -39.7      -3.8     -45.2      -0.6      -1.8
  3 C               250.5     257.1     149.9     282.8     106.0     109.6
  4 C               -50.8     -38.8     -36.8    -104.7      -2.0      -5.1
  5 C               -47.7     -82.4      -9.1     -34.7      -2.9      -1.1
  6 C                 3.5       0.7      -0.2       0.6       0.1      -1.8
 10 H                 0.1      -0.1      -0.0      -0.0      -0.0       0.0
 11 H                -0.3       1.1      -0.1       0.3      -0.0      -0.1
 12 H                 0.0       0.6      -0.1      -0.6      -0.2      -0.1
 13 H                -0.8       1.6      -0.2       1.0       0.0       0.3
 14 H                 0.4       1.5       0.4       0.3      -0.0       0.1
 15 H                -0.7       0.1       0.1      -0.2      -0.0       0.3
 16 H                -0.3       0.1      -0.0       0.0      -0.0      -0.0

                     78        79        80        81        82        83   
                   0.00000   0.00000   0.00000   0.00000   0.00000   0.00000
                   0.00021   0.00003   0.00001   0.00524   0.00115   0.00078
                  --------  --------  --------  --------  --------  --------
  1 C                 0.4       0.1       0.3       0.0      -0.0      -0.2
  2 C                -4.4      -6.7      -5.4       1.2      -0.2      -5.8
  3 C               111.2     110.2     110.5     -39.9     -10.9    -156.4
  4 C                -1.4      -2.6      -1.8     176.7     112.3     272.4
  5 C                -6.6      -1.5      -3.7       2.8      -0.1      -4.1
  6 C                 1.3      -0.1       0.2      -0.0      -0.0      -0.2
 11 H                -0.1       0.2       0.0      -0.2      -0.2      -0.4
 12 H                -0.2       0.5       0.2      -0.1      -0.0       0.1
 13 H                -0.1      -0.0      -0.1     -20.1      -0.5      -2.3
 14 H                 0.0      -0.0      -0.1     -20.2      -0.2      -1.4
 15 H                -0.2       0.0      -0.0      -0.1      -0.0      -1.3
 16 H                -0.0      -0.0      -0.0      -0.0      -0.0      -0.2

                     84        85        86        87        88        89   
                   0.00000   0.00000   0.00000   0.00000   0.00000   0.00000
                   0.00009   0.00002   0.00001   0.00000   0.00000   0.00000
                  --------  --------  --------  --------  --------  --------
  2 C                -0.1      -0.0       0.3       0.5      -0.1      -0.1
  3 C               -10.6      -3.7      -2.9      -6.2      -2.5      -3.3
  4 C               154.0     111.3     111.2     118.6     114.1     104.7
  5 C                -0.4      -0.1       0.2       0.5      -0.1      -0.0
 13 H               -20.9      -4.0      -4.1      -5.9      -5.6      -0.7
 14 H               -21.9      -3.4      -4.6      -7.3      -5.9      -0.4

                     90        91        92        93        94        95   
                   0.00000   0.00000   0.00000   0.00000   0.00000   0.00000
                   0.00409   0.00333   0.00131   0.00093   0.00016   0.00011
                  --------  --------  --------  --------  --------  --------
  0 C                 0.1      -0.0       0.1       0.1      -0.0       0.0
  1 C                -0.3      -1.4       4.3       3.5      -0.0      -0.4
  2 C                 0.1      -6.9       0.1       0.4       0.1      -0.4
  3 C               -21.6     -75.8     -43.7     -27.5      -4.2      -2.8
  4 C                 1.6       0.4      -1.3      -1.0       0.1       0.7
  5 C               174.8     221.2     238.9     196.8     109.1     110.0
  6 C               -20.7     -31.1     -92.7     -69.5      -4.0      -4.3
 11 H                -0.0       0.2       0.0       0.0      -0.0      -0.0
 12 H                -0.0       0.1       0.0       0.0      -0.0      -0.0
 13 H                -0.1       0.2       0.1       0.0      -0.0       0.0
 14 H                -0.4      -2.0      -0.1      -0.0      -0.0       0.0
 15 H               -32.9      -6.8      -4.7      -2.1      -1.0      -3.1
 16 H                -0.4       2.0      -1.2      -0.8       0.0       0.2

                     96        97        98        99       100       101   
                   0.00000   0.00000   0.00000   0.00000   0.00000   0.00000
                   0.00006   0.00001   0.00000   0.00403   0.00362   0.00199
                  --------  --------  --------  --------  --------  --------
  0 C                 0.0      -0.0      -0.1      -0.8      -2.7       0.5
  1 C                 0.4       0.0      -0.0     -11.6     -36.0     -25.8
  2 C                 1.8      -0.1      -0.1       3.0       2.3      -2.3
  3 C                -8.5      -2.3      -1.8       0.2       0.3      -3.3
  4 C                 0.1      -0.1      -0.1      -0.1      -0.0       0.1
  5 C               126.2     107.6     106.0     -18.3     -14.6     -72.7
  6 C                -7.4      -2.4      -1.7     165.1     152.4     204.8
  7 H                 0.0      -0.0      -0.0      -0.0      -0.2      -0.1
  8 H                -0.0      -0.0      -0.0      -0.0       0.1      -0.5
  9 H                -0.0      -0.0      -0.0       0.0      -0.8      -0.0
 10 H                -0.0      -0.0      -0.0      -0.1      -0.0       0.6
 14 H                -0.1      -0.0      -0.0       0.0       0.0      -0.1
 15 H               -12.2      -2.6      -2.2       0.1       0.3       0.3
 16 H                -0.1      -0.0      -0.0     -37.5      -0.9      -1.5

                    102       103       104       105       106       107   
                   0.00000   0.00000   0.00000   0.00000   0.00000   0.00000
                   0.00090   0.00018   0.00014   0.00006   0.00002   0.00000
                  --------  --------  --------  --------  --------  --------
  0 C                -0.3      -0.1       0.1      -0.0       0.0      -0.0
  1 C               -64.2      -2.9      -1.8      -2.7      -2.3      -2.8
  2 C                 4.7       0.4      -0.0      -0.2       0.6      -0.1
  3 C                 7.3      -0.4      -0.3       0.9      -0.2      -0.0
  4 C                 0.1      -0.1      -0.0      -0.1      -0.2      -0.0
  5 C              -109.3      -2.6      -4.7      -5.6      -4.0      -1.7
  6 C               270.8     107.0     109.7     115.0     113.3     106.5
  9 H                -0.4      -0.1       0.0      -0.0      -0.0      -0.0
 10 H                -1.0       0.2      -0.1      -0.1      -0.0       0.1
 15 H                -1.6      -0.0       0.1      -0.2       0.0       0.0
 16 H                -6.0      -1.3      -2.9      -6.9      -7.2      -1.9

                    108       109       110       111       112       113   
                   0.00000   0.00000   0.00000   0.00000   0.00000   0.00000
                   0.00176   0.00016   0.00012   0.00003   0.00176   0.00016
                  --------  --------  --------  --------  --------  --------
  0 C               -33.9      -2.9      -3.1      -7.9     -34.4      -2.9
  1 C                 0.5      -0.2      -0.1      -0.2       0.8      -0.2
  2 C                -0.5      -0.0      -0.0      -0.0      -0.2      -0.0
  6 C                -0.2      -0.0      -0.0      -0.1      -0.4      -0.0
  7 H               135.4     104.0     104.2     108.4      -0.2      -0.3
  8 H                -0.2      -0.4      -0.4      -0.1     135.9     104.0
  9 H                -0.3      -0.4      -0.4      -0.1      -0.3      -0.4
 10 H                -0.3      -0.0      -0.1      -0.0      -0.3      -0.0
 12 H                -0.3      -0.0      -0.0      -0.0      -0.0      -0.0
 16 H                -0.0      -0.0      -0.0      -0.0      -0.8      -0.0

                    114       115       116       117       118       119   
                   0.00000   0.00000   0.00000   0.00000   0.00000   0.00000
                   0.00011   0.00003   0.00231   0.00016   0.00011   0.00003
                  --------  --------  --------  --------  --------  --------
  0 C                -3.2      -7.9     -34.0      -2.9      -3.0      -7.8
  1 C                -0.1      -0.2       1.2      -0.1      -0.3      -0.1
  2 C                -0.1      -0.1      -0.8      -0.0      -0.1      -0.0
  5 C                -0.0      -0.0       0.1      -0.0      -0.0      -0.0
  6 C                -0.0      -0.0      -1.5      -0.1      -0.1      -0.0
  7 H                -0.4      -0.1      -0.4      -0.3      -0.4      -0.1
  8 H               104.3     108.5      -0.3      -0.3      -0.4      -0.1
  9 H                -0.4      -0.1     137.1     103.9     104.3     108.2
 12 H                -0.0       0.0      -1.4      -0.0      -0.0      -0.1

                    120       121       122       123       124       125   
                   0.00000   0.00000   0.00000   0.00000   0.00000   0.00000
                   0.00388   0.00012   0.00008   0.00004   0.00190   0.00013
                  --------  --------  --------  --------  --------  --------
  0 C                 0.2      -0.3      -0.4       0.1       0.1      -0.0
  1 C               -32.7      -3.2      -3.8      -8.2       0.9       0.1
  2 C                 0.5      -0.3      -0.2      -0.1     -37.5      -4.3
  3 C                 0.1      -0.1      -0.1      -0.0       0.9       0.0
  4 C                 0.0      -0.0      -0.0      -0.0      -0.8      -0.0
  5 C                 0.1      -0.0      -0.1       0.0       0.3      -0.0
  6 C                -0.4      -0.0      -0.6      -0.1      -0.1      -0.0
  7 H                -0.3      -0.1      -0.0      -0.0      -0.1      -0.0
  8 H                -0.3      -0.0      -0.1       0.0      -0.0      -0.0
 10 H               134.4     104.4     105.2     108.4      -1.5      -0.1
 11 H                -1.5      -0.1      -0.0      -0.0     138.7     105.2
 12 H                 0.0      -0.1      -0.0      -0.0      -0.5      -0.7
 13 H                -0.0      -0.0      -0.0      -0.0      -0.4      -0.0

                    126       127       128       129       130       131   
                   0.00000   0.00000   0.00000   0.00000   0.00000   0.00000
                   0.00010   0.00003   0.00227   0.00015   0.00011   0.00002
                  --------  --------  --------  --------  --------  --------
  0 C                -0.1      -0.0      -2.7      -0.0      -0.0      -0.0
  1 C                -0.2      -0.3       2.2      -0.1      -0.1      -0.3
  2 C                -3.1      -7.8     -36.5      -4.0      -3.3      -7.6
  3 C                -0.1      -0.2      -0.1       0.2      -0.2      -0.2
  5 C                -0.0       0.0       0.2      -0.0      -0.1      -0.0
  7 H                -0.0      -0.0      -0.2      -0.0      -0.0      -0.0
  9 H                -0.0      -0.0      -1.4       0.0      -0.0      -0.0
 11 H               104.1     108.4      -0.4      -0.7      -0.6      -0.0
 12 H                -0.5      -0.0     139.1     104.9     104.5     108.2

                    132       133       134       135       136       137   
                   0.00000   0.00000   0.00000   0.00000   0.00000   0.00000
                   0.00164   0.00026   0.00010   0.00004   0.00177   0.00026
                  --------  --------  --------  --------  --------  --------
  1 C                 0.0      -0.0      -0.0      -0.0      -0.2      -0.0
  2 C                -2.2      -0.0      -0.0      -0.1       0.5      -0.0
  3 C                 1.8      -0.0      -0.3      -0.1       2.8      -0.0
  4 C               -43.9      -3.2      -3.5      -8.6     -45.7      -3.2
  5 C                 0.4      -0.0      -0.0      -0.0      -2.6      -0.0
  6 C                -0.1      -0.0      -0.0      -0.0       0.0      -0.0
 11 H                -0.4      -0.0      -0.0      -0.0      -0.0      -0.0
 13 H               145.9     103.4     104.5     108.9      -1.4      -0.1
 14 H                -1.4      -0.1      -0.6      -0.1     147.6     103.4
 15 H                -0.0      -0.0      -0.0      -0.0      -0.9      -0.0

                    138       139       140       141       142       143   
                   0.00000   0.00000   0.00000   0.00000   0.00000   0.00000
                   0.00010   0.00005   0.00172   0.00018   0.00008   0.00006
                  --------  --------  --------  --------  --------  --------
  2 C                -0.0      -0.0       0.4      -0.0      -0.0      -0.1
  3 C                -0.3      -0.1      -1.0      -0.1       0.1      -0.8
  4 C                -3.1      -8.4      -1.4      -0.0      -0.0      -0.0
  5 C                -0.0      -0.1     -43.7      -3.0      -7.2      -5.0
  6 C                -0.0      -0.0      -1.8      -0.1      -0.3      -0.0
 13 H                -0.6      -0.1      -0.0      -0.0      -0.0      -0.0
 14 H               104.2     108.7      -0.9      -0.0      -0.1       0.0
 15 H                -0.0      -0.1     149.1     103.3     107.7     106.0
 16 H                -0.0      -0.0      -0.6      -0.0      -0.1      -0.1

                    144       145       146       147   
                   0.00000   0.00000   0.00000   0.00000
                   0.00168   0.00019   0.00008   0.00005
                  --------  --------  --------  --------
  0 C                -0.1      -0.0      -0.0      -0.0
  1 C                -1.5      -0.1       0.1      -1.0
  2 C                 0.2      -0.0      -0.0      -0.1
  3 C                -0.1      -0.0      -0.0      -0.0
  4 C                -0.2      -0.0      -0.0      -0.0
  5 C                -1.2      -0.1      -0.2      -0.0
  6 C               -41.8      -3.0      -8.2      -4.5
  8 H                -0.8      -0.0      -0.1      -0.0
 15 H                -0.6      -0.0      -0.0      -0.1
 16 H               146.2     103.4     108.5     105.9

Storing NBOs: 1297.nbo
                                    *** NBOs were stored ***

                                *** returned from GENNBO program ***

-------
TIMINGS
-------

Total SCF time: 0 days 0 hours 0 min 6 sec 

Total time                  ....       6.287 sec
Sum of individual times     ....       6.811 sec  (108.3%)

Fock matrix formation       ....       4.130 sec  ( 65.7%)
  Coulomb formation         ....       2.185 sec  ( 52.9% of F)
  Split-RI-J                ....       2.177 sec  ( 52.7% of F)
  XC integration            ....       1.940 sec  ( 47.0% of F)
    Basis function eval.    ....       0.645 sec  ( 33.2% of XC)
    Density eval.           ....       0.358 sec  ( 18.5% of XC)
    XC-Functional eval.     ....       0.107 sec  (  5.5% of XC)
    XC-Potential eval.      ....       0.787 sec  ( 40.6% of XC)
Diagonalization             ....       0.023 sec  (  0.4%)
Density matrix formation    ....       0.003 sec  (  0.0%)
Population analysis         ....       1.473 sec  ( 23.4%)
Initial guess               ....       0.402 sec  (  6.4%)
Orbital Transformation      ....       0.000 sec  (  0.0%)
Orbital Orthonormalization  ....       0.000 sec  (  0.0%)
DIIS solution               ....       0.006 sec  (  0.1%)
SOSCF solution              ....       0.015 sec  (  0.2%)
Grid generation             ....       0.759 sec  ( 12.1%)
           ************************************************************
           *              Shut down parallel processing               *
           ************************************************************

-------------------------   --------------------
FINAL SINGLE POINT ENERGY      -272.158501971526
-------------------------   --------------------


                            ***************************************
                            *     ORCA property calculations      *
                            ***************************************

                                    ---------------------
                                    Active property flags
                                    ---------------------
   (+) Dipole Moment


------------------------------------------------------------------------------
                       ORCA ELECTRIC PROPERTIES CALCULATION
------------------------------------------------------------------------------

Dipole Moment Calculation                       ... on
Quadrupole Moment Calculation                   ... off
Polarizability Calculation                      ... off
GBWName                                         ... 1297.gbw
Electron density file                           ... 1297.scfp.tmp

-------------
DIPOLE MOMENT
-------------
                                X             Y             Z
Electronic contribution:      2.49008       0.93416       2.44389
Nuclear contribution   :     -2.62001      -0.83024      -2.71847
                        -----------------------------------------
Total Dipole Moment    :     -0.12994       0.10392      -0.27458
                        -----------------------------------------
Magnitude (a.u.)       :      0.32105
Magnitude (Debye)      :      0.81605


Timings for individual modules:

Sum of individual times         ...        7.490 sec (=   0.125 min)
GTO integral calculation        ...        0.473 sec (=   0.008 min)   6.3 %
SCF iterations                  ...        7.017 sec (=   0.117 min)  93.7 %
                             ****ORCA TERMINATED NORMALLY****
TOTAL RUN TIME: 0 days 0 hours 0 minutes 7 seconds 886 msec
