
                                 *****************
                                 * O   R   C   A *
                                 *****************

           --- An Ab Initio, DFT and Semiempirical electronic structure package ---

                  #######################################################
                  #                        -***-                        #
                  #  Department of molecular theory and spectroscopy    #
                  #              Directorship: Frank Neese              #
                  # Max Planck Institute for Chemical Energy Conversion #
                  #                  D-45470 Muelheim/Ruhr              #
                  #                       Germany                       #
                  #                                                     #
                  #                  All rights reserved                #
                  #                        -***-                        #
                  #######################################################


                         Program Version 3.0.3 - RELEASE   -


 With contributions from (in alphabetic order):
   Ute Becker             : Parallelization
   Dmytro Bykov           : SCF Hessian
   Dmitry Ganyushin       : Spin-Orbit,Spin-Spin,Magnetic field MRCI
   Andreas Hansen         : Spin unrestricted coupled pair/coupled cluster methods
   Dimitrios Liakos       : Extrapolation schemes; parallel MDCI
   Robert Izsak           : Overlap fitted RIJCOSX, COSX-SCS-MP3
   Christian Kollmar      : KDIIS, OOCD, Brueckner-CCSD(T), CCSD density
   Simone Kossmann        : Meta GGA functionals, TD-DFT gradient, OOMP2, MP2 Hessian
   Taras Petrenko         : DFT Hessian,TD-DFT gradient, ASA and ECA modules, normal mode analysis, Resonance Raman, ABS, FL, XAS/XES, NRVS
   Christoph Reimann      : Effective Core Potentials
   Michael Roemelt        : Restricted open shell CIS
   Christoph Riplinger    : Improved optimizer, TS searches, QM/MM, DLPNO-CCSD
   Barbara Sandhoefer     : DKH picture change effects
   Igor Schapiro          : Molecular dynamics
   Kantharuban Sivalingam : CASSCF convergence, NEVPT2
   Boris Wezisla          : Elementary symmetry handling
   Frank Wennmohs         : Technical directorship


 We gratefully acknowledge several colleagues who have allowed us to
 interface, adapt or use parts of their codes:
   Stefan Grimme, W. Hujo, H. Kruse, T. Risthaus : VdW corrections, initial TS optimization,
                                                   DFT functionals, gCP
   Ed Valeev                                     : LibInt (2-el integral package), F12 methods
   Garnet Chan, S. Sharma, R. Olivares           : DMRG
   Ulf Ekstrom                                   : XCFun DFT Library
   Mihaly Kallay                                 : mrcc  (arbitrary order and MRCC methods)
   Andreas Klamt, Michael Diedenhofen            : otool_cosmo (COSMO solvation model)
   Frank Weinhold                                : gennbo (NPA and NBO analysis)
   Christopher J. Cramer and Donald G. Truhlar   : smd solvation model


 Your calculation uses the libint2 library for the computation of 2-el integrals
 For citations please refer to: http://libint.valeyev.net

 This ORCA versions uses:
   CBLAS   interface :  Fast vector & matrix operations
   LAPACKE interface :  Fast linear algebra routines
   SCALAPACK package :  Parallel linear algebra routines


Your calculation utilizes the basis: Ahlrichs-VDZ
Cite in your paper:
H - Kr: A. Schaefer, H. Horn and R. Ahlrichs, J. Chem. Phys. 97, 2571 (1992).

Your calculation utilizes the basis: Ahlrichs SVPalls1+f
Cite in your paper:
Rb - Xe: A. Schaefer, C. Huber and R. Ahlrichs, J. Chem. Phys. 100, 5829 (1994).

================================================================================
                                        WARNINGS
                       Please study these warnings very carefully!
================================================================================
Now building the actual basis set


INFO   : the flag for use of LIBINT has been found!

================================================================================
                                       INPUT FILE
================================================================================
NAME = 1440.inp
|  1> ! RI PBE def2-SVP def2-SVP/J NBO PAL2
|  2> % maxcore 2000
|  3> % output
|  4>     # printlevel mini
|  5>     print[ P_Basis ] 0
|  6>     print[ P_SCFInfo ] 1
|  7>     print[ P_SCFIterInfo ] 1
|  8>     print[ P_OrbEn ] 0
|  9>     print[ P_Cartesian ] 0
| 10> end
| 11> *xyz 0 1
| 12>  C        0.8858640000     0.1355770000    -0.2187930000 
| 13>  C        2.3928450000    -0.0315300000    -0.0313420000 
| 14>  C        2.7537130000    -0.4712880000     1.4015060000 
| 15>  C        2.4147710000     0.5573130000     2.4275960000 
| 16>  C        1.6126390000     0.3679310000     3.4657680000 
| 17>  C        2.9398660000    -0.9709930000    -1.0021640000 
| 18>  C        3.3814580000    -1.7603930000    -1.7924170000 
| 19>  H        0.4927560000     0.8552800000     0.5015200000 
| 20>  H        0.3752250000    -0.8177680000    -0.0643680000 
| 21>  H        0.6553880000     0.4841760000    -1.2264280000 
| 22>  H        2.8723040000     0.9400050000    -0.2104460000 
| 23>  H        3.8300400000    -0.6727270000     1.4317860000 
| 24>  H        2.2461680000    -1.4141630000     1.6261040000 
| 25>  H        2.8827460000     1.5326260000     2.2959660000 
| 26>  H        1.1243890000    -0.5866580000     3.6370270000 
| 27>  H        1.4193310000     1.1551760000     4.1853160000 
| 28>  H        3.7747080000    -2.4553750000    -2.4958420000 
| 29> *
| 30> 
| 31>                          ****END OF INPUT****
================================================================================

                       ****************************
                       * Single Point Calculation *
                       ****************************

--------------------------------
INTERNAL COORDINATES (ANGSTROEM)
--------------------------------
 C      0   0   0   0.000000     0.000     0.000
 C      1   0   0   1.527761     0.000     0.000
 C      2   1   0   1.541644   112.094     0.000
 C      3   2   1   1.491899   112.916   295.067
 C      4   3   2   1.325550   125.285   122.331
 C      2   1   3   1.457504   111.038   123.904
 C      6   2   1   1.201106   179.032   288.952
 H      1   2   3   1.091493   110.268    57.168
 H      1   2   3   1.092459   110.381   297.562
 H      1   2   3   1.090857   110.897   177.785
 H      2   1   3   1.098107   108.294   241.496
 H      3   2   1   1.095433   107.947   174.092
 H      3   2   1   1.094102   109.149    58.179
 H      4   3   2   1.089753   115.875   301.822
 H      5   4   3   1.085798   121.416   359.457
 H      5   4   3   1.083915   121.606   179.041
 H      7   6   2   1.064167   179.685   172.277

---------------------------
INTERNAL COORDINATES (A.U.)
---------------------------
 C      0   0   0   0.000000     0.000     0.000
 C      1   0   0   2.887050     0.000     0.000
 C      2   1   0   2.913285   112.094     0.000
 C      3   2   1   2.819280   112.916   295.067
 C      4   3   2   2.504926   125.285   122.331
 C      2   1   3   2.754283   111.038   123.904
 C      6   2   1   2.269761   179.032   288.952
 H      1   2   3   2.062623   110.268    57.168
 H      1   2   3   2.064448   110.381   297.562
 H      1   2   3   2.061421   110.897   177.785
 H      2   1   3   2.075122   108.294   241.496
 H      3   2   1   2.070069   107.947   174.092
 H      3   2   1   2.067553   109.149    58.179
 H      4   3   2   2.059336   115.875   301.822
 H      5   4   3   2.051861   121.416   359.457
 H      5   4   3   2.048303   121.606   179.041
 H      7   6   2   2.010985   179.685   172.277



           ************************************************************
           *        Program running with 2 parallel MPI-processes     *
           *              working on a common directory               *
           ************************************************************
------------------------------------------------------------------------------
                           ORCA GTO INTEGRAL CALCULATION
                           -- RI-GTO INTEGRALS CHOSEN --
------------------------------------------------------------------------------

                         BASIS SET STATISTICS AND STARTUP INFO

Gaussian basis set:
 # of primitive gaussian shells          ...  134
 # of primitive gaussian functions       ...  238
 # of contracted shells                  ...   72
 # of contracted basis functions         ...  148
 Highest angular momentum                ...    2
 Maximum contraction depth               ...    5
Auxiliary gaussian basis set:
 # of primitive gaussian shells          ...  248
 # of primitive gaussian functions       ...  650
 # of contracted shells                  ...  155
 # of contracted aux-basis functions     ...  453
 Highest angular momentum                ...    4
 Maximum contraction depth               ...    7
Ratio of auxiliary to basis functions    ...  3.06
Integral package used                  ... LIBINT
 One Electron integrals                  ... done
 Ordering auxiliary basis shells         ... done
 Integral threshhold             Thresh  ...  1.000e-10
 Primitive cut-off               TCut    ...  1.000e-11
 Pre-screening matrix                    ... done
 Shell pair data                         ... 
 Ordering of the shell pairs             ... done (   0.000 sec) 2494 of 2628 pairs
 Determination of significant pairs      ... done (   0.000 sec)
 Creation of shell pair data             ... done (   0.000 sec)
 Storage of shell pair data              ... done (   0.000 sec)
 Shell pair data done in (   0.001 sec)
 Computing two index integrals           ... done
 Cholesky decomposition of the V-matrix  ... done


Timings:
 Total evaluation time                   ...   0.163 sec (  0.003 min)
 One electron matrix time                ...   0.024 sec (  0.000 min) = 14.5%
 Schwartz matrix evaluation time         ...   0.074 sec (  0.001 min) = 45.3%
 Two index repulsion integral time       ...   0.004 sec (  0.000 min) =  2.5%
 Cholesky decomposition of V             ...   0.004 sec (  0.000 min) =  2.3%
 Three index repulsion integral time     ...   0.000 sec (  0.000 min) =  0.0%

           ************************************************************
           *              Shut down parallel processing               *
           ************************************************************


           ************************************************************
           *        Program running with 2 parallel MPI-processes     *
           *              working on a common directory               *
           ************************************************************
-------------------------------------------------------------------------------
                                 ORCA SCF
-------------------------------------------------------------------------------

------------
SCF SETTINGS
------------
Hamiltonian:
 Density Functional     Method          .... DFT(GTOs)
 Exchange Functional    Exchange        .... PBE
   PBE kappa parameter  XKappa          ....  0.804000
 Correlation Functional Correlation     .... PBE
 LDA part of GGA corr.  LDAOpt          .... PW91-LDA
 Gradients option       PostSCFGGA      .... off
   NL short-range parameter             ....  6.400000
 RI-approximation to the Coulomb term is turned on
   Number of auxiliary basis functions  .... 453


General Settings:
 Integral files         IntName         .... 1440
 Hartree-Fock type      HFTyp           .... RHF
 Total Charge           Charge          ....    0
 Multiplicity           Mult            ....    1
 Number of Electrons    NEL             ....   52
 Basis Dimension        Dim             ....  148
 Nuclear Repulsion      ENuc            ....    267.8447113883 Eh

Convergence Acceleration:
 DIIS                   CNVDIIS         .... on
   Start iteration      DIISMaxIt       ....    12
   Startup error        DIISStart       ....  0.200000
   # of expansion vecs  DIISMaxEq       ....     5
   Bias factor          DIISBfac        ....   1.050
   Max. coefficient     DIISMaxC        ....  10.000
 Newton-Raphson         CNVNR           .... off
 SOSCF                  CNVSOSCF        .... on
   Start iteration      SOSCFMaxIt      ....   150
   Startup grad/error   SOSCFStart      ....  0.003300
 Level Shifting         CNVShift        .... on
   Level shift para.    LevelShift      ....    0.2500
   Turn off err/grad.   ShiftErr        ....    0.0010
 Zerner damping         CNVZerner       .... off
 Static damping         CNVDamp         .... on
   Fraction old density DampFac         ....    0.7000
   Max. Damping (<1)    DampMax         ....    0.9800
   Min. Damping (>=0)   DampMin         ....    0.0000
   Turn off err/grad.   DampErr         ....    0.1000
 Fernandez-Rico         CNVRico         .... off

SCF Procedure:
 Maximum # iterations   MaxIter         ....   125
 SCF integral mode      SCFMode         .... Direct
   Integral package                     .... LIBINT
 Reset frequeny         DirectResetFreq ....    20
 Integral Threshold     Thresh          ....  1.000e-10 Eh
 Primitive CutOff       TCut            ....  1.000e-11 Eh

Convergence Tolerance:
 Convergence Check Mode ConvCheckMode   .... Total+1el-Energy
 Energy Change          TolE            ....  1.000e-06 Eh
 1-El. energy change                    ....  1.000e-03 Eh
 Orbital Gradient       TolG            ....  5.000e-05
 Orbital Rotation angle TolX            ....  5.000e-05
 DIIS Error             TolErr          ....  1.000e-06


Diagonalization of the overlap matrix:
Smallest eigenvalue                        ... 5.848e-04
Time for diagonalization                   ...    0.012 sec
Threshold for overlap eigenvalues          ... 1.000e-08
Number of eigenvalues below threshold      ... 0
Time for construction of square roots      ...    0.003 sec
Total time needed                          ...    0.015 sec

-------------------
DFT GRID GENERATION
-------------------

General Integration Accuracy     IntAcc      ...  4.340
Radial Grid Type                 RadialGrid  ... Gauss-Chebyshev
Angular Grid (max. acc.)         AngularGrid ... Lebedev-110
Angular grid pruning method      GridPruning ... 3 (G Style)
Weight generation scheme         WeightScheme... Becke
Basis function cutoff            BFCut       ...    1.0000e-10
Integration weight cutoff        WCut        ...    1.0000e-14
Grids for H and He will be reduced by one unit

# of grid points (after initial pruning)     ...  19532 (   0.0 sec)
# of grid points (after weights+screening)   ...  18118 (   0.1 sec)
nearest neighbour list constructed           ...    0.0 sec
Grid point re-assignment to atoms done       ...    0.0 sec
Grid point division into batches done        ...    0.0 sec
Reduced shell lists constructed in    0.1 sec

Total number of grid points                  ...    18118
Total number of batches                      ...      291
Average number of points per batch           ...       62
Average number of grid points per atom       ...     1066
Average number of shells per batch           ...    55.86 (77.59%)
Average number of basis functions per batch  ...   112.72 (76.16%)
Average number of large shells per batch     ...    43.78 (78.36%)
Average number of large basis fcns per batch ...    86.27 (76.53%)
Maximum spatial batch extension              ...  20.58, 19.49, 19.76 au
Average spatial batch extension              ...   1.45,  1.36,  1.38 au

Time for grid setup =    0.149 sec

------------------------------
INITIAL GUESS: MODEL POTENTIAL
------------------------------
Loading Hartree-Fock densities                     ... done
Calculating cut-offs                               ... done
Setting up the integral package                    ... done
Initializing the effective Hamiltonian             ... done
Starting the Coulomb interaction                   ... done (   0.0 sec)
Reading the grid                                   ... done
Mapping shells                                     ... done
Starting the XC term evaluation                    ... done (   0.1 sec)
  promolecular density results
     # of electrons  =     51.994531142
     EX              =    -38.672571020
     EC              =     -1.666861327
     EX+EC           =    -40.339432347
Transforming the Hamiltonian                       ... done (   0.0 sec)
Diagonalizing the Hamiltonian                      ... done (   0.0 sec)
Back transforming the eigenvectors                 ... done (   0.0 sec)
Now organizing SCF variables                       ... done
                      ------------------
                      INITIAL GUESS DONE (   0.4 sec)
                      ------------------
--------------
SCF ITERATIONS
--------------
ITER       Energy         Delta-E        Max-DP      RMS-DP      [F,P]     Damp
               ***  Starting incremental Fock matrix formation  ***
  0   -271.9112705860   0.000000000000 0.07107819  0.00233039  0.1510455 0.7000
  1   -271.9965498234  -0.085279237480 0.04028704  0.00169842  0.0737091 0.7000
                               ***Turning on DIIS***
  2   -272.0300263365  -0.033476513009 0.05666942  0.00289824  0.0265520 0.0000
  3   -272.0739872899  -0.043960953451 0.03318302  0.00121521  0.0453849 0.0000
  4   -272.0898311515  -0.015843861590 0.01406560  0.00041893  0.0117442 0.0000
                      *** Initiating the SOSCF procedure ***
                           *** Shutting down DIIS ***
                      *** Re-Reading the Fockian *** 
                      *** Removing any level shift *** 
ITER      Energy       Delta-E        Grad      Rot      Max-DP    RMS-DP
  5   -272.09060280  -0.0007716471  0.000650  0.000650  0.006466  0.000178
               *** Restarting incremental Fock matrix formation ***
  6   -272.09066124  -0.0000584439  0.000889  0.003569  0.003692  0.000120
  7   -272.09060908   0.0000521611  0.002706  0.002548  0.002825  0.000072
  8   -272.09066950  -0.0000604188  0.000097  0.000289  0.000573  0.000026
  9   -272.09066873   0.0000007657  0.000140  0.000244  0.000397  0.000014
 10   -272.09067013  -0.0000013934  0.000036  0.000160  0.000180  0.000004
 11   -272.09067006   0.0000000726  0.000084  0.000115  0.000131  0.000003
                 **** Energy Check signals convergence ****
              ***Rediagonalizing the Fockian in SOSCF/NRSCF***

               *****************************************************
               *                     SUCCESS                       *
               *           SCF CONVERGED AFTER  12 CYCLES          *
               *****************************************************

Setting up the final grid:

General Integration Accuracy     IntAcc      ...  4.670
Radial Grid Type                 RadialGrid  ... Gauss-Chebyshev
Angular Grid (max. acc.)         AngularGrid ... Lebedev-302
Angular grid pruning method      GridPruning ... 3 (G Style)
Weight generation scheme         WeightScheme... Becke
Basis function cutoff            BFCut       ...    1.0000e-10
Integration weight cutoff        WCut        ...    1.0000e-14
Grids for H and He will be reduced by one unit

# of grid points (after initial pruning)     ...  77424 (   0.0 sec)
# of grid points (after weights+screening)   ...  70767 (   0.1 sec)
nearest neighbour list constructed           ...    0.0 sec
Grid point re-assignment to atoms done       ...    0.0 sec
Grid point division into batches done        ...    0.2 sec
Reduced shell lists constructed in    0.5 sec

Total number of grid points                  ...    70767
Total number of batches                      ...     1114
Average number of points per batch           ...       63
Average number of grid points per atom       ...     4163
Average number of shells per batch           ...    52.19 (72.49%)
Average number of basis functions per batch  ...   104.16 (70.38%)
Average number of large shells per batch     ...    40.32 (77.26%)
Average number of large basis fcns per batch ...    78.65 (75.51%)
Maximum spatial batch extension              ...  15.73, 15.83, 16.33 au
Average spatial batch extension              ...   0.94,  0.92,  0.91 au

Final grid set up in    0.6 sec
Final integration                            ... done (   0.4 sec)
Change in XC energy                          ...     0.000135502
Integrated number of electrons               ...    52.000227208
Previous integrated no of electrons          ...    52.000205522

----------------
TOTAL SCF ENERGY
----------------

Total Energy       :         -272.09053464 Eh           -7403.95986 eV

Components:
Nuclear Repulsion  :          267.84471139 Eh            7288.42513 eV
Electronic Energy  :         -539.93524603 Eh          -14692.38499 eV

One Electron Energy:         -895.44383154 Eh          -24366.26541 eV
Two Electron Energy:          355.50858551 Eh            9673.88042 eV

Virial components:
Potential Energy   :         -541.26423639 Eh          -14728.54866 eV
Kinetic Energy     :          269.17370174 Eh            7324.58880 eV
Virial Ratio       :            2.01083625


DFT components:
N(Alpha)           :       26.000113604040 electrons
N(Beta)            :       26.000113604040 electrons
N(Total)           :       52.000227208080 electrons
E(X)               :      -39.530819743594 Eh       
E(C)               :       -1.686583260111 Eh       
E(XC)              :      -41.217403003705 Eh       

---------------
SCF CONVERGENCE
---------------

  Last Energy change         ...   -9.2054e-08  Tolerance :   1.0000e-06
  Last MAX-Density change    ...    2.9977e-05  Tolerance :   1.0000e-05
  Last RMS-Density change    ...    1.0550e-06  Tolerance :   1.0000e-06
  Last Orbital Gradient      ...    6.1277e-06  Tolerance :   5.0000e-05
  Last Orbital Rotation      ...    1.2327e-05  Tolerance :   5.0000e-05

             **** THE GBW FILE WAS UPDATED (1440.gbw) ****
             **** DENSITY FILE WAS UPDATED (1440.scfp.tmp) ****
             **** ENERGY FILE WAS UPDATED (1440.en.tmp) ****

                    ********************************
                    * MULLIKEN POPULATION ANALYSIS *
                    ********************************

-----------------------
MULLIKEN ATOMIC CHARGES
-----------------------
   0 C :    0.031960
   1 C :   -0.096925
   2 C :    0.081456
   3 C :   -0.074873
   4 C :   -0.028305
   5 C :    0.425690
   6 C :   -0.535096
   7 H :    0.026538
   8 H :    0.026089
   9 H :    0.030598
  10 H :    0.028554
  11 H :    0.033559
  12 H :    0.008380
  13 H :    0.001573
  14 H :    0.018759
  15 H :    0.027150
  16 H :   -0.005105
Sum of atomic charges:    0.0000000

--------------------------------
MULLIKEN REDUCED ORBITAL CHARGES
--------------------------------
  0 C s       :     2.982906  s :     2.982906
      pz      :     1.008869  p :     2.960192
      px      :     0.937323
      py      :     1.014000
      dz2     :     0.005488  d :     0.024942
      dxz     :     0.003929
      dyz     :     0.004386
      dx2y2   :     0.004780
      dxy     :     0.006359
  1 C s       :     3.026030  s :     3.026030
      pz      :     0.964791  p :     3.025636
      px      :     1.025731
      py      :     1.035114
      dz2     :     0.009690  d :     0.045260
      dxz     :     0.009641
      dyz     :     0.008714
      dx2y2   :     0.007893
      dxy     :     0.009322
  2 C s       :     2.974149  s :     2.974149
      pz      :     0.915972  p :     2.911416
      px      :     0.998265
      py      :     0.997179
      dz2     :     0.009155  d :     0.032979
      dxz     :     0.004369
      dyz     :     0.007818
      dx2y2   :     0.006863
      dxy     :     0.004773
  3 C s       :     3.158320  s :     3.158320
      pz      :     0.952155  p :     2.882640
      px      :     0.975686
      py      :     0.954799
      dz2     :     0.009257  d :     0.033913
      dxz     :     0.005427
      dyz     :     0.007652
      dx2y2   :     0.005490
      dxy     :     0.006086
  4 C s       :     3.107532  s :     3.107532
      pz      :     0.980449  p :     2.896603
      px      :     0.997369
      py      :     0.918785
      dz2     :     0.005926  d :     0.024170
      dxz     :     0.003688
      dyz     :     0.006819
      dx2y2   :     0.003459
      dxy     :     0.004278
  5 C s       :     3.089911  s :     3.089911
      pz      :     0.754807  p :     2.453743
      px      :     0.900269
      py      :     0.798667
      dz2     :     0.008736  d :     0.030657
      dxz     :     0.004743
      dyz     :     0.005795
      dx2y2   :     0.006474
      dxy     :     0.004909
  6 C s       :     3.730694  s :     3.730694
      pz      :     0.903695  p :     2.785610
      px      :     0.988433
      py      :     0.893481
      dz2     :     0.004725  d :     0.018792
      dxz     :     0.003189
      dyz     :     0.004309
      dx2y2   :     0.003366
      dxy     :     0.003203
  7 H s       :     0.949241  s :     0.949241
      pz      :     0.009554  p :     0.024220
      px      :     0.005526
      py      :     0.009140
  8 H s       :     0.950262  s :     0.950262
      pz      :     0.005783  p :     0.023649
      px      :     0.006166
      py      :     0.011700
  9 H s       :     0.945766  s :     0.945766
      pz      :     0.012523  p :     0.023636
      px      :     0.004736
      py      :     0.006378
 10 H s       :     0.949480  s :     0.949480
      pz      :     0.004451  p :     0.021967
      px      :     0.005879
      py      :     0.011637
 11 H s       :     0.943304  s :     0.943304
      pz      :     0.004465  p :     0.023137
      px      :     0.013318
      py      :     0.005354
 12 H s       :     0.969041  s :     0.969041
      pz      :     0.004359  p :     0.022579
      px      :     0.006920
      py      :     0.011300
 13 H s       :     0.975382  s :     0.975382
      pz      :     0.004442  p :     0.023046
      px      :     0.006501
      py      :     0.012103
 14 H s       :     0.957224  s :     0.957224
      pz      :     0.005005  p :     0.024017
      px      :     0.006887
      py      :     0.012124
 15 H s       :     0.948816  s :     0.948816
      pz      :     0.008982  p :     0.024034
      px      :     0.005277
      py      :     0.009775
 16 H s       :     0.977949  s :     0.977949
      pz      :     0.010017  p :     0.027156
      px      :     0.007237
      py      :     0.009902


                     *******************************
                     * LOEWDIN POPULATION ANALYSIS *
                     *******************************

----------------------
LOEWDIN ATOMIC CHARGES
----------------------
   0 C :   -0.045256
   1 C :   -0.047740
   2 C :   -0.024780
   3 C :   -0.029597
   4 C :   -0.062196
   5 C :   -0.012611
   6 C :   -0.093780
   7 H :    0.028561
   8 H :    0.030251
   9 H :    0.031660
  10 H :    0.045427
  11 H :    0.041355
  12 H :    0.031285
  13 H :    0.025373
  14 H :    0.022750
  15 H :    0.025720
  16 H :    0.033580

-------------------------------
LOEWDIN REDUCED ORBITAL CHARGES
-------------------------------
  0 C s       :     2.838145  s :     2.838145
      pz      :     1.067901  p :     3.138636
      px      :     0.998247
      py      :     1.072488
      dz2     :     0.015808  d :     0.068474
      dxz     :     0.009722
      dyz     :     0.012425
      dx2y2   :     0.015012
      dxy     :     0.015506
  1 C s       :     2.829906  s :     2.829906
      pz      :     1.016964  p :     3.106800
      px      :     1.042323
      py      :     1.047513
      dz2     :     0.026386  d :     0.111034
      dxz     :     0.019779
      dyz     :     0.021940
      dx2y2   :     0.021899
      dxy     :     0.021030
  2 C s       :     2.836914  s :     2.836914
      pz      :     0.992399  p :     3.100275
      px      :     1.058496
      py      :     1.049380
      dz2     :     0.024996  d :     0.087591
      dxz     :     0.009926
      dyz     :     0.021265
      dx2y2   :     0.018433
      dxy     :     0.012971
  3 C s       :     2.876621  s :     2.876621
      pz      :     1.032233  p :     3.063368
      px      :     1.002235
      py      :     1.028900
      dz2     :     0.022744  d :     0.089608
      dxz     :     0.015171
      dyz     :     0.022158
      dx2y2   :     0.013612
      dxy     :     0.015924
  4 C s       :     2.883935  s :     2.883935
      pz      :     1.047441  p :     3.109836
      px      :     1.023107
      py      :     1.039287
      dz2     :     0.015416  d :     0.068426
      dxz     :     0.011690
      dyz     :     0.019680
      dx2y2   :     0.009359
      dxy     :     0.012282
  5 C s       :     2.911690  s :     2.911690
      pz      :     1.021791  p :     3.025074
      px      :     0.975315
      py      :     1.027968
      dz2     :     0.019821  d :     0.075847
      dxz     :     0.012291
      dyz     :     0.016951
      dx2y2   :     0.014177
      dxy     :     0.012607
  6 C s       :     2.944913  s :     2.944913
      pz      :     1.040344  p :     3.099873
      px      :     1.018650
      py      :     1.040879
      dz2     :     0.010682  d :     0.048994
      dxz     :     0.008380
      dyz     :     0.013548
      dx2y2   :     0.008025
      dxy     :     0.008358
  7 H s       :     0.903160  s :     0.903160
      pz      :     0.026100  p :     0.068279
      px      :     0.016992
      py      :     0.025187
  8 H s       :     0.902786  s :     0.902786
      pz      :     0.013593  p :     0.066963
      px      :     0.019243
      py      :     0.034127
  9 H s       :     0.901287  s :     0.901287
      pz      :     0.036726  p :     0.067053
      px      :     0.014451
      py      :     0.015875
 10 H s       :     0.886860  s :     0.886860
      pz      :     0.013960  p :     0.067713
      px      :     0.018889
      py      :     0.034864
 11 H s       :     0.890842  s :     0.890842
      pz      :     0.013408  p :     0.067804
      px      :     0.040260
      py      :     0.014135
 12 H s       :     0.901816  s :     0.901816
      pz      :     0.013641  p :     0.066899
      px      :     0.018672
      py      :     0.034585
 13 H s       :     0.906553  s :     0.906553
      pz      :     0.012863  p :     0.068073
      px      :     0.018400
      py      :     0.036810
 14 H s       :     0.908010  s :     0.908010
      pz      :     0.013076  p :     0.069240
      px      :     0.019666
      py      :     0.036497
 15 H s       :     0.904804  s :     0.904804
      pz      :     0.025652  p :     0.069477
      px      :     0.014848
      py      :     0.028976
 16 H s       :     0.887257  s :     0.887257
      pz      :     0.029528  p :     0.079163
      px      :     0.020422
      py      :     0.029213


                      *****************************
                      * MAYER POPULATION ANALYSIS *
                      *****************************

  NA   - Mulliken gross atomic population
  ZA   - Total nuclear charge
  QA   - Mulliken gross atomic charge
  VA   - Mayer's total valence
  BVA  - Mayer's bonded valence
  FA   - Mayer's free valence

  ATOM       NA         ZA         QA         VA         BVA        FA
  0 C      5.9680     6.0000     0.0320     3.9437     3.9437    -0.0000
  1 C      6.0969     6.0000    -0.0969     3.9882     3.9882     0.0000
  2 C      5.9185     6.0000     0.0815     3.9433     3.9433     0.0000
  3 C      6.0749     6.0000    -0.0749     4.1162     4.1162    -0.0000
  4 C      6.0283     6.0000    -0.0283     3.9396     3.9396    -0.0000
  5 C      5.5743     6.0000     0.4257     3.2035     3.2035     0.0000
  6 C      6.5351     6.0000    -0.5351     3.4408     3.4408     0.0000
  7 H      0.9735     1.0000     0.0265     1.0064     1.0064     0.0000
  8 H      0.9739     1.0000     0.0261     0.9991     0.9991    -0.0000
  9 H      0.9694     1.0000     0.0306     0.9903     0.9903    -0.0000
 10 H      0.9714     1.0000     0.0286     0.9764     0.9764    -0.0000
 11 H      0.9664     1.0000     0.0336     0.9823     0.9823    -0.0000
 12 H      0.9916     1.0000     0.0084     1.0008     1.0008    -0.0000
 13 H      0.9984     1.0000     0.0016     0.9822     0.9822    -0.0000
 14 H      0.9812     1.0000     0.0188     0.9859     0.9859    -0.0000
 15 H      0.9729     1.0000     0.0271     0.9736     0.9736     0.0000
 16 H      1.0051     1.0000    -0.0051     0.9952     0.9952     0.0000

  Mayer bond orders larger than 0.1
B(  0-C ,  1-C ) :   1.0614 B(  0-C ,  7-H ) :   0.9533 B(  0-C ,  8-H ) :   0.9612 
B(  0-C ,  9-H ) :   0.9622 B(  1-C ,  2-C ) :   1.0359 B(  1-C ,  5-C ) :   1.0034 
B(  1-C , 10-H ) :   0.8753 B(  2-C ,  3-C ) :   1.0720 B(  2-C , 11-H ) :   0.9105 
B(  2-C , 12-H ) :   0.9242 B(  3-C ,  4-C ) :   2.0020 B(  3-C , 13-H ) :   0.9491 
B(  4-C , 14-H ) :   0.9478 B(  4-C , 15-H ) :   0.9419 B(  5-C ,  6-C ) :   2.2931 
B(  5-C , 16-H ) :  -0.1205 B(  6-C , 16-H ) :   1.1104 


 *********************************** NBO 6.0 ***********************************
             N A T U R A L   A T O M I C   O R B I T A L   A N D
          N A T U R A L   B O N D   O R B I T A L   A N A L Y S I S
 ***************************** Kiya KiyaLu (100703) ****************************
  (c) Copyright 1996-2015 Board of Regents of the University of Wisconsin System
      on behalf of the Theoretical Chemistry Institute.  All rights reserved.

          Cite this program as:

          NBO 6.0.  E. D. Glendening, J. K. Badenhoop, A. E. Reed,
          J. E. Carpenter, J. A. Bohmann, C. M. Morales, C. R. Landis,
          and F. Weinhold (Theoretical Chemistry Institute, University
          of Wisconsin, Madison, WI, 2013); http://nbo6.chem.wisc.edu/

       /NPA    / : Natural Population Analysis
       /NBO    / : Natural Bond Orbital Analysis
       /AONBO  / : Write the AO to NBO transformation to lfn77
       /FILE   / : Set to 1440

 Filename set to 1440

 Job title:  *** NBO job generated by orca_scf

 Warning: MOs are non-orthogonal; program will continue

 Warning: -4212.75858 electrons reside outside the linearly independent MO space


 NATURAL POPULATIONS:  Natural atomic orbital occupancies

  NAO Atom No lang   Type(AO)    Occupancy      Energy
 -------------------------------------------------------
   1    C  1  s      Cor( 1s)     1.99920      -9.77867
   2    C  1  s      Val( 2s)     1.08458      -0.21536
   3    C  1  s      Ryd( 3s)     0.00081       0.81887
   4    C  1  px     Val( 2p)     1.06525      -0.07033
   5    C  1  px     Ryd( 3p)     0.00135       0.47728
   6    C  1  py     Val( 2p)     1.23736      -0.07146
   7    C  1  py     Ryd( 3p)     0.00201       0.59747
   8    C  1  pz     Val( 2p)     1.23984      -0.07035
   9    C  1  pz     Ryd( 3p)     0.00284       0.63569
  10    C  1  dxy    Ryd( 3d)     0.00051       2.20332
  11    C  1  dxz    Ryd( 3d)     0.00029       2.08929
  12    C  1  dyz    Ryd( 3d)     0.00047       2.26620
  13    C  1  dx2y2  Ryd( 3d)     0.00046       2.18423
  14    C  1  dz2    Ryd( 3d)     0.00055       2.29469

  15    C  2  s      Cor( 1s)     1.99891      -9.80189
  16    C  2  s      Val( 2s)     0.94540      -0.17323
  17    C  2  s      Ryd( 3s)     0.00107       0.90221
  18    C  2  px     Val( 2p)     1.10529      -0.09391
  19    C  2  px     Ryd( 3p)     0.00175       0.72525
  20    C  2  py     Val( 2p)     1.18462      -0.08614
  21    C  2  py     Ryd( 3p)     0.00231       0.71884
  22    C  2  pz     Val( 2p)     1.06705      -0.09133
  23    C  2  pz     Ryd( 3p)     0.00182       0.63313
  24    C  2  dxy    Ryd( 3d)     0.00087       2.19643
  25    C  2  dxz    Ryd( 3d)     0.00091       2.04468
  26    C  2  dyz    Ryd( 3d)     0.00081       2.17838
  27    C  2  dx2y2  Ryd( 3d)     0.00065       2.20654
  28    C  2  dz2    Ryd( 3d)     0.00077       2.20312

  29    C  3  s      Cor( 1s)     1.99903      -9.78237
  30    C  3  s      Val( 2s)     1.01047      -0.19339
  31    C  3  s      Ryd( 3s)     0.00176       0.86246
  32    C  3  px     Val( 2p)     1.23144      -0.07941
  33    C  3  px     Ryd( 3p)     0.00557       0.77881
  34    C  3  py     Val( 2p)     1.16736      -0.07665
  35    C  3  py     Ryd( 3p)     0.00214       0.63241
  36    C  3  pz     Val( 2p)     1.03424      -0.07919
  37    C  3  pz     Ryd( 3p)     0.00255       0.57531
  38    C  3  dxy    Ryd( 3d)     0.00045       2.21406
  39    C  3  dxz    Ryd( 3d)     0.00036       2.03194
  40    C  3  dyz    Ryd( 3d)     0.00068       2.18696
  41    C  3  dx2y2  Ryd( 3d)     0.00062       2.32653
  42    C  3  dz2    Ryd( 3d)     0.00074       2.22639

  43    C  4  s      Cor( 1s)     1.99893      -9.77545
  44    C  4  s      Val( 2s)     0.95732      -0.15362
  45    C  4  s      Ryd( 3s)     0.00289       0.57023
  46    C  4  px     Val( 2p)     1.05074      -0.08580
  47    C  4  px     Ryd( 3p)     0.00250       0.61959
  48    C  4  py     Val( 2p)     1.13537      -0.04996
  49    C  4  py     Ryd( 3p)     0.00311       0.83544
  50    C  4  pz     Val( 2p)     1.05811      -0.06546
  51    C  4  pz     Ryd( 3p)     0.00476       0.64528
  52    C  4  dxy    Ryd( 3d)     0.00045       2.13266
  53    C  4  dxz    Ryd( 3d)     0.00060       2.21049
  54    C  4  dyz    Ryd( 3d)     0.00056       2.16579
  55    C  4  dx2y2  Ryd( 3d)     0.00058       2.08682
  56    C  4  dz2    Ryd( 3d)     0.00079       2.10560

  57    C  5  s      Cor( 1s)     1.99891      -9.76733
  58    C  5  s      Val( 2s)     1.04274      -0.17394
  59    C  5  s      Ryd( 3s)     0.00059       0.52331
  60    C  5  px     Val( 2p)     1.06073      -0.08249
  61    C  5  px     Ryd( 3p)     0.00150       0.50034
  62    C  5  py     Val( 2p)     1.18089      -0.04029
  63    C  5  py     Ryd( 3p)     0.00398       0.79555
  64    C  5  pz     Val( 2p)     1.11083      -0.05743
  65    C  5  pz     Ryd( 3p)     0.00195       0.52403
  66    C  5  dxy    Ryd( 3d)     0.00033       2.10342
  67    C  5  dxz    Ryd( 3d)     0.00058       2.17164
  68    C  5  dyz    Ryd( 3d)     0.00054       2.22717
  69    C  5  dx2y2  Ryd( 3d)     0.00046       2.07853
  70    C  5  dz2    Ryd( 3d)     0.00058       2.08197

  71    C  6  s      Cor( 1s)     1.99871      -9.75585
  72    C  6  s      Val( 2s)     0.86948      -0.06145
  73    C  6  s      Ryd( 3s)     0.00524       0.60740
  74    C  6  px     Val( 2p)     1.01995      -0.06486
  75    C  6  px     Ryd( 3p)     0.00362       0.67364
  76    C  6  py     Val( 2p)     1.06029      -0.03931
  77    C  6  py     Ryd( 3p)     0.00240       0.74453
  78    C  6  pz     Val( 2p)     1.06310      -0.03842
  79    C  6  pz     Ryd( 3p)     0.00399       0.77467
  80    C  6  dxy    Ryd( 3d)     0.00049       2.05981
  81    C  6  dxz    Ryd( 3d)     0.00045       2.04684
  82    C  6  dyz    Ryd( 3d)     0.00067       2.39853
  83    C  6  dx2y2  Ryd( 3d)     0.00063       1.98480
  84    C  6  dz2    Ryd( 3d)     0.00081       2.04166

  85    C  7  s      Cor( 1s)     1.99836      -9.74774
  86    C  7  s      Val( 2s)     0.98985      -0.10850
  87    C  7  s      Ryd( 3s)     0.00077       0.51037
  88    C  7  px     Val( 2p)     1.03799      -0.06373
  89    C  7  px     Ryd( 3p)     0.00031       0.56241
  90    C  7  py     Val( 2p)     1.09707      -0.03016
  91    C  7  py     Ryd( 3p)     0.00046       0.68114
  92    C  7  pz     Val( 2p)     1.09933      -0.02928
  93    C  7  pz     Ryd( 3p)     0.00048       0.68536
  94    C  7  dxy    Ryd( 3d)     0.00044       2.04947
  95    C  7  dxz    Ryd( 3d)     0.00044       2.05163
  96    C  7  dyz    Ryd( 3d)     0.00079       2.45335
  97    C  7  dx2y2  Ryd( 3d)     0.00039       1.95968
  98    C  7  dz2    Ryd( 3d)     0.00051       2.00786

  99    H  8  s      Val( 1s)     0.76699       0.07216
 100    H  8  s      Ryd( 2s)     0.00160       0.37342
 101    H  8  px     Ryd( 2p)     0.00020       1.78742
 102    H  8  py     Ryd( 2p)     0.00042       2.00010
 103    H  8  pz     Ryd( 2p)     0.00046       2.00080

 104    H  9  s      Val( 1s)     0.77248       0.06785
 105    H  9  s      Ryd( 2s)     0.00200       0.34778
 106    H  9  px     Ryd( 2p)     0.00025       1.83283
 107    H  9  py     Ryd( 2p)     0.00066       2.15121
 108    H  9  pz     Ryd( 2p)     0.00016       1.74702

 109    H 10  s      Val( 1s)     0.76512       0.07290
 110    H 10  s      Ryd( 2s)     0.00140       0.33556
 111    H 10  px     Ryd( 2p)     0.00014       1.70997
 112    H 10  py     Ryd( 2p)     0.00021       1.79442
 113    H 10  pz     Ryd( 2p)     0.00074       2.21906

 114    H 11  s      Val( 1s)     0.73754       0.07008
 115    H 11  s      Ryd( 2s)     0.00387       0.33865
 116    H 11  px     Ryd( 2p)     0.00025       1.85105
 117    H 11  py     Ryd( 2p)     0.00080       2.13218
 118    H 11  pz     Ryd( 2p)     0.00013       1.74892

 119    H 12  s      Val( 1s)     0.74564       0.07282
 120    H 12  s      Ryd( 2s)     0.00241       0.34072
 121    H 12  px     Ryd( 2p)     0.00090       2.25031
 122    H 12  py     Ryd( 2p)     0.00016       1.77300
 123    H 12  pz     Ryd( 2p)     0.00009       1.73083

 124    H 13  s      Val( 1s)     0.76332       0.06855
 125    H 13  s      Ryd( 2s)     0.00308       0.36229
 126    H 13  px     Ryd( 2p)     0.00027       1.86377
 127    H 13  py     Ryd( 2p)     0.00070       2.14171
 128    H 13  pz     Ryd( 2p)     0.00010       1.75565

 129    H 14  s      Val( 1s)     0.78409       0.06799
 130    H 14  s      Ryd( 2s)     0.00280       0.32391
 131    H 14  px     Ryd( 2p)     0.00030       1.78885
 132    H 14  py     Ryd( 2p)     0.00080       2.18139
 133    H 14  pz     Ryd( 2p)     0.00011       1.81420

 134    H 15  s      Val( 1s)     0.79593       0.06270
 135    H 15  s      Ryd( 2s)     0.00198       0.32630
 136    H 15  px     Ryd( 2p)     0.00032       1.77627
 137    H 15  py     Ryd( 2p)     0.00073       2.18908
 138    H 15  pz     Ryd( 2p)     0.00015       1.72243

 139    H 16  s      Val( 1s)     0.78721       0.06826
 140    H 16  s      Ryd( 2s)     0.00156       0.31255
 141    H 16  px     Ryd( 2p)     0.00020       1.67760
 142    H 16  py     Ryd( 2p)     0.00053       2.05884
 143    H 16  pz     Ryd( 2p)     0.00046       1.98176

 144    H 17  s      Val( 1s)     0.76546       0.06897
 145    H 17  s      Ryd( 2s)     0.00024       0.26559
 146    H 17  px     Ryd( 2p)     0.00038       1.76621
 147    H 17  py     Ryd( 2p)     0.00058       2.00118
 148    H 17  pz     Ryd( 2p)     0.00059       2.00891

   1 low occupancy (<1.9990e) core orbital  found on  C  2
   1 low occupancy (<1.9990e) core orbital  found on  C  4
   1 low occupancy (<1.9990e) core orbital  found on  C  5
   1 low occupancy (<1.9990e) core orbital  found on  C  6
   1 low occupancy (<1.9990e) core orbital  found on  C  7


 Summary of Natural Population Analysis:

                                     Natural Population
             Natural    ---------------------------------------------
  Atom No    Charge        Core      Valence    Rydberg      Total
 --------------------------------------------------------------------
    C  1   -0.63552      1.99920     4.62703    0.00929     6.63552
    C  2   -0.31220      1.99891     4.30236    0.01094     6.31220
    C  3   -0.45739      1.99903     4.44351    0.01486     6.45739
    C  4   -0.21672      1.99893     4.20154    0.01625     6.21672
    C  5   -0.40462      1.99891     4.39519    0.01052     6.40462
    C  6   -0.02985      1.99871     4.01282    0.01831     6.02985
    C  7   -0.22719      1.99836     4.22423    0.00460     6.22719
    H  8    0.23034      0.00000     0.76699    0.00268     0.76966
    H  9    0.22445      0.00000     0.77248    0.00307     0.77555
    H 10    0.23240      0.00000     0.76512    0.00248     0.76760
    H 11    0.25741      0.00000     0.73754    0.00505     0.74259
    H 12    0.25079      0.00000     0.74564    0.00357     0.74921
    H 13    0.23253      0.00000     0.76332    0.00416     0.76747
    H 14    0.21189      0.00000     0.78409    0.00402     0.78811
    H 15    0.20090      0.00000     0.79593    0.00317     0.79910
    H 16    0.21005      0.00000     0.78721    0.00274     0.78995
    H 17    0.23275      0.00000     0.76546    0.00179     0.76725
 ====================================================================
 * Total *  0.00000     13.99205    37.89046    0.11748    52.00000

                                 Natural Population
 ---------------------------------------------------------
   Core                      13.99205 ( 99.9432% of   14)
   Valence                   37.89046 ( 99.7117% of   38)
   Natural Minimal Basis     51.88252 ( 99.7741% of   52)
   Natural Rydberg Basis      0.11748 (  0.2259% of   52)
 ---------------------------------------------------------

    Atom No         Natural Electron Configuration
 ----------------------------------------------------------------------------
      C  1      [core]2s( 1.08)2p( 3.54)3p( 0.01)
      C  2      [core]2s( 0.95)2p( 3.36)3p( 0.01)
      C  3      [core]2s( 1.01)2p( 3.43)3p( 0.01)
      C  4      [core]2s( 0.96)2p( 3.24)3p( 0.01)
      C  5      [core]2s( 1.04)2p( 3.35)3p( 0.01)
      C  6      [core]2s( 0.87)2p( 3.14)3s( 0.01)3p( 0.01)
      C  7      [core]2s( 0.99)2p( 3.23)
      H  8            1s( 0.77)
      H  9            1s( 0.77)
      H 10            1s( 0.77)
      H 11            1s( 0.74)
      H 12            1s( 0.75)
      H 13            1s( 0.76)
      H 14            1s( 0.78)
      H 15            1s( 0.80)
      H 16            1s( 0.79)
      H 17            1s( 0.77)


 NATURAL BOND ORBITAL ANALYSIS:

                            Occupancies       Lewis Structure    Low   High
         Max    Occ     -------------------  -----------------   occ   occ
  Cycle  Ctr   Thresh    Lewis   non-Lewis     CR  BD  nC  LP    (L)   (NL)
 ============================================================================
    1     2     1.90    51.54182   0.45818      7  19   0   0     0      0
 ----------------------------------------------------------------------------

 Structure accepted: No low occupancy Lewis orbitals

 -------------------------------------------------------
   Core                     13.99205 ( 99.943% of  14)
   Valence Lewis            37.54976 ( 98.815% of  38)
  ==================      =============================
   Total Lewis              51.54182 ( 99.119% of  52)
  -----------------------------------------------------
   Valence non-Lewis         0.37471 (  0.721% of  52)
   Rydberg non-Lewis         0.08348 (  0.161% of  52)
  ==================      =============================
   Total non-Lewis           0.45818 (  0.881% of  52)
 -------------------------------------------------------


     (Occupancy)   Bond orbital / Coefficients / Hybrids
 ------------------ Lewis ------------------------------------------------------
   1. (1.99920) CR ( 1) C  1            s(100.00%)
                                         1.0000  0.0000  0.0000  0.0000  0.0000
                                         0.0000  0.0000  0.0000  0.0000  0.0000
                                         0.0000  0.0000  0.0000  0.0000
   2. (1.99891) CR ( 1) C  2            s(100.00%)
                                         1.0000  0.0000  0.0000  0.0000  0.0000
                                         0.0000  0.0000  0.0000  0.0000  0.0000
                                         0.0000  0.0000  0.0000  0.0000
   3. (1.99903) CR ( 1) C  3            s(100.00%)
                                         1.0000  0.0000  0.0000  0.0000  0.0000
                                         0.0000  0.0000  0.0000  0.0000  0.0000
                                         0.0000  0.0000  0.0000  0.0000
   4. (1.99893) CR ( 1) C  4            s(100.00%)
                                         1.0000  0.0000  0.0000  0.0000  0.0000
                                         0.0000  0.0000  0.0000  0.0000  0.0000
                                         0.0000  0.0000  0.0000  0.0000
   5. (1.99891) CR ( 1) C  5            s(100.00%)
                                         1.0000  0.0000  0.0000  0.0000  0.0000
                                         0.0000  0.0000  0.0000  0.0000  0.0000
                                         0.0000  0.0000  0.0000  0.0000
   6. (1.99871) CR ( 1) C  6            s(100.00%)
                                         1.0000  0.0000  0.0000  0.0000  0.0000
                                         0.0000  0.0000  0.0000  0.0000  0.0000
                                         0.0000  0.0000  0.0000  0.0000
   7. (1.99836) CR ( 1) C  7            s(100.00%)
                                         1.0000  0.0000  0.0000  0.0000  0.0000
                                         0.0000  0.0000  0.0000  0.0000  0.0000
                                         0.0000  0.0000  0.0000  0.0000
   8. (1.96580) BD ( 1) C  1- C  2
               ( 47.97%)   0.6926* C  1 s( 29.51%)p 2.39( 70.45%)d 0.00(  0.04%)
                                         0.0000  0.5433 -0.0003  0.8286  0.0010
                                        -0.0902  0.0113  0.0985 -0.0055 -0.0035
                                         0.0038 -0.0004  0.0162 -0.0095
               ( 52.03%)   0.7213* C  2 s( 26.88%)p 2.72( 73.10%)d 0.00(  0.03%)
                                         0.0000  0.5184  0.0049 -0.8435  0.0002
                                         0.0956  0.0116 -0.1003 -0.0108 -0.0010
                                         0.0060  0.0012  0.0140 -0.0066
   9. (1.98424) BD ( 1) C  1- H  8
               ( 61.57%)   0.7847* C  1 s( 23.50%)p 3.25( 76.46%)d 0.00(  0.04%)
                                         0.0000  0.4848  0.0000 -0.3229 -0.0151
                                         0.5767 -0.0011  0.5722 -0.0093 -0.0071
                                        -0.0068  0.0155 -0.0055  0.0036
               ( 38.43%)   0.6199* H  8 s( 99.90%)p 0.00(  0.10%)
                                         0.9995 -0.0016  0.0121 -0.0197 -0.0204
  10. (1.98809) BD ( 1) C  1- H  9
               ( 61.39%)   0.7835* C  1 s( 23.31%)p 3.29( 76.65%)d 0.00(  0.04%)
                                         0.0000  0.4828 -0.0023 -0.4141 -0.0178
                                        -0.7611  0.0063  0.1240 -0.0060  0.0122
                                        -0.0019 -0.0046 -0.0099 -0.0092
               ( 38.61%)   0.6214* H  9 s( 99.90%)p 0.00(  0.10%)
                                         0.9995 -0.0023  0.0158  0.0272 -0.0040
  11. (1.98692) BD ( 1) C  1- H 10
               ( 61.63%)   0.7851* C  1 s( 23.62%)p 3.23( 76.35%)d 0.00(  0.04%)
                                         0.0000  0.4860  0.0042 -0.1921 -0.0130
                                         0.2819 -0.0005 -0.8043  0.0068 -0.0018
                                         0.0048 -0.0098 -0.0010  0.0153
               ( 38.37%)   0.6194* H 10 s( 99.90%)p 0.00(  0.10%)
                                         0.9995 -0.0008  0.0079 -0.0096  0.0291
  12. (1.95010) BD ( 1) C  2- C  3
               ( 51.11%)   0.7149* C  2 s( 26.45%)p 2.78( 73.52%)d 0.00(  0.03%)
                                         0.0000  0.5143 -0.0032  0.1937  0.0118
                                        -0.2418  0.0019  0.7994 -0.0112 -0.0045
                                         0.0073 -0.0096 -0.0011  0.0109
               ( 48.89%)   0.6992* C  3 s( 27.41%)p 2.65( 72.55%)d 0.00(  0.03%)
                                         0.0000  0.5236  0.0006 -0.2007  0.0064
                                         0.2419 -0.0044 -0.7916  0.0000 -0.0034
                                         0.0066 -0.0100 -0.0016  0.0136
  13. (1.97348) BD ( 1) C  2- C  6
               ( 50.90%)   0.7135* C  2 s( 26.32%)p 2.80( 73.63%)d 0.00(  0.05%)
                                         0.0000  0.5129  0.0097  0.3213  0.0100
                                        -0.5503  0.0068 -0.5744 -0.0117 -0.0101
                                        -0.0096  0.0174 -0.0057  0.0038
               ( 49.10%)   0.7007* C  6 s( 48.23%)p 1.07( 51.73%)d 0.00(  0.04%)
                                         0.0000  0.6939 -0.0288 -0.2650  0.0161
                                         0.4698 -0.0114  0.4746 -0.0271 -0.0080
                                        -0.0080  0.0141 -0.0044  0.0034
  14. (1.94824) BD ( 1) C  2- H 11
               ( 63.06%)   0.7941* C  2 s( 20.32%)p 3.92( 79.65%)d 0.00(  0.03%)
                                         0.0000  0.4507 -0.0088  0.3837 -0.0015
                                         0.7929 -0.0065 -0.1430 -0.0067  0.0128
                                        -0.0042 -0.0063 -0.0064 -0.0069
               ( 36.94%)   0.6078* H 11 s( 99.88%)p 0.00(  0.12%)
                                         0.9993 -0.0077 -0.0145 -0.0316  0.0059
  15. (1.97486) BD ( 1) C  3- C  4
               ( 50.80%)   0.7127* C  3 s( 28.73%)p 2.48( 71.23%)d 0.00(  0.04%)
                                         0.0000  0.5359  0.0085 -0.1954  0.0159
                                         0.5797 -0.0007  0.5811  0.0137 -0.0064
                                        -0.0045  0.0159 -0.0086  0.0028
               ( 49.20%)   0.7015* C  4 s( 33.87%)p 1.95( 66.09%)d 0.00(  0.04%)
                                         0.0000  0.5819 -0.0073  0.1831  0.0145
                                        -0.5609  0.0055 -0.5590  0.0089 -0.0028
                                        -0.0067  0.0156 -0.0091  0.0038
  16. (1.96112) BD ( 1) C  3- H 12
               ( 62.48%)   0.7904* C  3 s( 21.48%)p 3.65( 78.48%)d 0.00(  0.03%)
                                         0.0000  0.4635  0.0005  0.8686 -0.0083
                                        -0.1699 -0.0131  0.0343  0.0109 -0.0032
                                         0.0012  0.0002  0.0159 -0.0086
               ( 37.52%)   0.6125* H 12 s( 99.88%)p 0.00(  0.12%)
                                         0.9994 -0.0035 -0.0333  0.0082 -0.0012
  17. (1.97671) BD ( 1) C  3- H 13
               ( 61.89%)   0.7867* C  3 s( 22.33%)p 3.48( 77.64%)d 0.00(  0.03%)
                                         0.0000  0.4725 -0.0055 -0.4077  0.0190
                                        -0.7589 -0.0061  0.1839  0.0031  0.0132
                                        -0.0031 -0.0053 -0.0075 -0.0075
               ( 38.11%)   0.6173* H 13 s( 99.89%)p 0.00(  0.11%)
                                         0.9994 -0.0048  0.0140  0.0295 -0.0066
  18. (1.98678) BD ( 1) C  4- C  5
               ( 50.97%)   0.7140* C  4 s( 39.18%)p 1.55( 60.77%)d 0.00(  0.05%)
                                         0.0000  0.6253  0.0273 -0.5374 -0.0139
                                        -0.0822  0.0149  0.5574  0.0320  0.0042
                                        -0.0201 -0.0028  0.0065  0.0073
               ( 49.03%)   0.7002* C  5 s( 41.14%)p 1.43( 58.79%)d 0.00(  0.07%)
                                         0.0000  0.6413  0.0143  0.3923  0.0162
                                         0.1376  0.0104 -0.6439 -0.0120  0.0053
                                        -0.0220 -0.0042  0.0044  0.0119
  19. (1.97551) BD ( 2) C  4- C  5
               ( 49.44%)   0.7031* C  4 s(  0.31%)p99.99( 99.63%)d 0.19(  0.06%)
                                         0.0000  0.0537  0.0144  0.7346 -0.0216
                                        -0.3055  0.0059  0.6022 -0.0132  0.0014
                                         0.0045 -0.0088 -0.0129  0.0182
               ( 50.56%)   0.7111* C  5 s(  0.30%)p99.99( 99.64%)d 0.19(  0.06%)
                                         0.0000  0.0550  0.0024  0.8184 -0.0201
                                        -0.2910  0.0078  0.4912 -0.0152 -0.0015
                                        -0.0087  0.0075  0.0128 -0.0170
  20. (1.97322) BD ( 1) C  4- H 14
               ( 60.95%)   0.7807* C  4 s( 26.64%)p 2.75( 73.33%)d 0.00(  0.03%)
                                         0.0000  0.5157 -0.0200  0.3699 -0.0013
                                         0.7646 -0.0008 -0.1088  0.0089  0.0117
                                        -0.0022 -0.0028 -0.0103 -0.0081
               ( 39.05%)   0.6249* H 14 s( 99.89%)p 0.00(  0.11%)
                                         0.9994 -0.0048 -0.0138 -0.0300  0.0021
  21. (1.98371) BD ( 1) C  5- H 15
               ( 60.24%)   0.7761* C  5 s( 29.28%)p 2.41( 70.69%)d 0.00(  0.04%)
                                         0.0000  0.5410 -0.0090 -0.3850 -0.0119
                                        -0.7325  0.0026  0.1469  0.0179  0.0126
                                        -0.0025 -0.0025 -0.0110 -0.0090
               ( 39.76%)   0.6306* H 15 s( 99.90%)p 0.00(  0.10%)
                                         0.9995 -0.0032  0.0139  0.0275 -0.0050
  22. (1.98266) BD ( 1) C  5- H 16
               ( 60.55%)   0.7781* C  5 s( 29.25%)p 2.42( 70.71%)d 0.00(  0.04%)
                                         0.0000  0.5409 -0.0039 -0.1633 -0.0085
                                         0.5993 -0.0080  0.5666  0.0089 -0.0029
                                        -0.0037  0.0163 -0.0099  0.0019
               ( 39.45%)   0.6281* H 16 s( 99.91%)p 0.00(  0.09%)
                                         0.9995 -0.0017  0.0052 -0.0224 -0.0203
  23. (1.98505) BD ( 1) C  6- C  7
               ( 51.22%)   0.7157* C  6 s( 51.65%)p 0.93( 48.29%)d 0.00(  0.07%)
                                         0.0000  0.7180  0.0308  0.2541  0.0105
                                        -0.4655 -0.0183 -0.4481 -0.0188 -0.0109
                                        -0.0108  0.0197 -0.0069  0.0037
               ( 48.78%)   0.6985* C  7 s( 53.17%)p 0.88( 46.74%)d 0.00(  0.08%)
                                         0.0000  0.7291  0.0099 -0.2532  0.0030
                                         0.4395 -0.0037  0.4584 -0.0037 -0.0118
                                        -0.0119  0.0214 -0.0071  0.0044
  24. (1.98200) BD ( 2) C  6- C  7
               ( 49.84%)   0.7060* C  6 s(  0.00%)p 1.00( 99.94%)d 0.00(  0.06%)
                                         0.0000 -0.0014  0.0010  0.8944 -0.0062
                                         0.0600  0.0046  0.4424 -0.0006 -0.0141
                                        -0.0101 -0.0081  0.0095 -0.0124
               ( 50.16%)   0.7082* C  7 s(  0.00%)p 1.00( 99.93%)d 0.00(  0.07%)
                                         0.0000 -0.0014  0.0026  0.8953 -0.0055
                                         0.0584  0.0018  0.4409 -0.0007  0.0145
                                         0.0109  0.0086 -0.0093  0.0129
  25. (1.98082) BD ( 3) C  6- C  7
               ( 49.91%)   0.7065* C  6 s(  0.02%)p99.99( 99.92%)d 3.66(  0.06%)
                                         0.0000  0.0113  0.0060  0.2535  0.0000
                                         0.7471  0.0001 -0.6139  0.0036  0.0020
                                        -0.0090 -0.0019  0.0147  0.0173
               ( 50.09%)   0.7077* C  7 s(  0.01%)p 1.00( 99.93%)d 0.00(  0.07%)
                                         0.0000  0.0073  0.0027  0.2472 -0.0014
                                         0.7584 -0.0026 -0.6024  0.0042 -0.0030
                                         0.0098  0.0026 -0.0151 -0.0178
  26. (1.99044) BD ( 1) C  7- H 17
               ( 61.72%)   0.7856* C  7 s( 46.68%)p 1.14( 53.28%)d 0.00(  0.05%)
                                         0.0000  0.6832 -0.0068  0.2695  0.0072
                                        -0.4771 -0.0122 -0.4818 -0.0124 -0.0089
                                        -0.0090  0.0161 -0.0053  0.0033
               ( 38.28%)   0.6187* H 17 s( 99.90%)p 0.00(  0.10%)
                                         0.9995 -0.0006 -0.0120  0.0211  0.0214
 ---------------- non-Lewis ----------------------------------------------------
  27. (0.02099) BD*( 1) C  1- C  2
               ( 52.03%)   0.7213* C  1 s( 29.51%)p 2.39( 70.45%)d 0.00(  0.04%)
                                         0.0000  0.5433 -0.0003  0.8286  0.0010
                                        -0.0902  0.0113  0.0985 -0.0055 -0.0035
                                         0.0038 -0.0004  0.0162 -0.0095
               ( 47.97%)  -0.6926* C  2 s( 26.88%)p 2.72( 73.10%)d 0.00(  0.03%)
                                         0.0000  0.5184  0.0049 -0.8435  0.0002
                                         0.0956  0.0116 -0.1003 -0.0108 -0.0010
                                         0.0060  0.0012  0.0140 -0.0066
  28. (0.00851) BD*( 1) C  1- H  8
               ( 38.43%)   0.6199* C  1 s( 23.50%)p 3.25( 76.46%)d 0.00(  0.04%)
                                         0.0000 -0.4848  0.0000  0.3229  0.0151
                                        -0.5767  0.0011 -0.5722  0.0093  0.0071
                                         0.0068 -0.0155  0.0055 -0.0036
               ( 61.57%)  -0.7847* H  8 s( 99.90%)p 0.00(  0.10%)
                                        -0.9995  0.0016 -0.0121  0.0197  0.0204
  29. (0.00921) BD*( 1) C  1- H  9
               ( 38.61%)   0.6214* C  1 s( 23.31%)p 3.29( 76.65%)d 0.00(  0.04%)
                                         0.0000 -0.4828  0.0023  0.4141  0.0178
                                         0.7611 -0.0063 -0.1240  0.0060 -0.0122
                                         0.0019  0.0046  0.0099  0.0092
               ( 61.39%)  -0.7835* H  9 s( 99.90%)p 0.00(  0.10%)
                                        -0.9995  0.0023 -0.0158 -0.0272  0.0040
  30. (0.00587) BD*( 1) C  1- H 10
               ( 38.37%)   0.6194* C  1 s( 23.62%)p 3.23( 76.35%)d 0.00(  0.04%)
                                         0.0000 -0.4860 -0.0042  0.1921  0.0130
                                        -0.2819  0.0005  0.8043 -0.0068  0.0018
                                        -0.0048  0.0098  0.0010 -0.0153
               ( 61.63%)  -0.7851* H 10 s( 99.90%)p 0.00(  0.10%)
                                        -0.9995  0.0008 -0.0079  0.0096 -0.0291
  31. (0.03364) BD*( 1) C  2- C  3
               ( 48.89%)   0.6992* C  2 s( 26.45%)p 2.78( 73.52%)d 0.00(  0.03%)
                                         0.0000 -0.5143  0.0032 -0.1937 -0.0118
                                         0.2418 -0.0019 -0.7994  0.0112  0.0045
                                        -0.0073  0.0096  0.0011 -0.0109
               ( 51.11%)  -0.7149* C  3 s( 27.41%)p 2.65( 72.55%)d 0.00(  0.03%)
                                         0.0000 -0.5236 -0.0006  0.2007 -0.0064
                                        -0.2419  0.0044  0.7916  0.0000  0.0034
                                        -0.0066  0.0100  0.0016 -0.0136
  32. (0.02906) BD*( 1) C  2- C  6
               ( 49.10%)   0.7007* C  2 s( 26.32%)p 2.80( 73.63%)d 0.00(  0.05%)
                                         0.0000 -0.5129 -0.0097 -0.3213 -0.0100
                                         0.5503 -0.0068  0.5744  0.0117  0.0101
                                         0.0096 -0.0174  0.0057 -0.0038
               ( 50.90%)  -0.7135* C  6 s( 48.23%)p 1.07( 51.73%)d 0.00(  0.04%)
                                         0.0000 -0.6939  0.0288  0.2650 -0.0161
                                        -0.4698  0.0114 -0.4746  0.0271  0.0080
                                         0.0080 -0.0141  0.0044 -0.0034
  33. (0.02984) BD*( 1) C  2- H 11
               ( 36.94%)   0.6078* C  2 s( 20.32%)p 3.92( 79.65%)d 0.00(  0.03%)
                                         0.0000 -0.4507  0.0088 -0.3837  0.0015
                                        -0.7929  0.0065  0.1430  0.0067 -0.0128
                                         0.0042  0.0063  0.0064  0.0069
               ( 63.06%)  -0.7941* H 11 s( 99.88%)p 0.00(  0.12%)
                                        -0.9993  0.0077  0.0145  0.0316 -0.0059
  34. (0.02202) BD*( 1) C  3- C  4
               ( 49.20%)   0.7015* C  3 s( 28.73%)p 2.48( 71.23%)d 0.00(  0.04%)
                                         0.0000 -0.5359 -0.0085  0.1954 -0.0159
                                        -0.5797  0.0007 -0.5811 -0.0137  0.0064
                                         0.0045 -0.0159  0.0086 -0.0028
               ( 50.80%)  -0.7127* C  4 s( 33.87%)p 1.95( 66.09%)d 0.00(  0.04%)
                                         0.0000 -0.5819  0.0073 -0.1831 -0.0145
                                         0.5609 -0.0055  0.5590 -0.0089  0.0028
                                         0.0067 -0.0156  0.0091 -0.0038
  35. (0.01709) BD*( 1) C  3- H 12
               ( 37.52%)   0.6125* C  3 s( 21.48%)p 3.65( 78.48%)d 0.00(  0.03%)
                                         0.0000 -0.4635 -0.0005 -0.8686  0.0083
                                         0.1699  0.0131 -0.0343 -0.0109  0.0032
                                        -0.0012 -0.0002 -0.0159  0.0086
               ( 62.48%)  -0.7904* H 12 s( 99.88%)p 0.00(  0.12%)
                                        -0.9994  0.0035  0.0333 -0.0082  0.0012
  36. (0.01749) BD*( 1) C  3- H 13
               ( 38.11%)   0.6173* C  3 s( 22.33%)p 3.48( 77.64%)d 0.00(  0.03%)
                                         0.0000 -0.4725  0.0055  0.4077 -0.0190
                                         0.7589  0.0061 -0.1839 -0.0031 -0.0132
                                         0.0031  0.0053  0.0075  0.0075
               ( 61.89%)  -0.7867* H 13 s( 99.89%)p 0.00(  0.11%)
                                        -0.9994  0.0048 -0.0140 -0.0295  0.0066
  37. (0.01002) BD*( 1) C  4- C  5
               ( 49.03%)   0.7002* C  4 s( 39.18%)p 1.55( 60.77%)d 0.00(  0.05%)
                                         0.0000 -0.6253 -0.0273  0.5374  0.0139
                                         0.0822 -0.0149 -0.5574 -0.0320 -0.0042
                                         0.0201  0.0028 -0.0065 -0.0073
               ( 50.97%)  -0.7140* C  5 s( 41.14%)p 1.43( 58.79%)d 0.00(  0.07%)
                                         0.0000 -0.6413 -0.0143 -0.3923 -0.0162
                                        -0.1376 -0.0104  0.6439  0.0120 -0.0053
                                         0.0220  0.0042 -0.0044 -0.0119
  38. (0.03492) BD*( 2) C  4- C  5
               ( 50.56%)   0.7111* C  4 s(  0.31%)p99.99( 99.63%)d 0.19(  0.06%)
                                         0.0000 -0.0537 -0.0144 -0.7346  0.0216
                                         0.3055 -0.0059 -0.6022  0.0132 -0.0014
                                        -0.0045  0.0088  0.0129 -0.0182
               ( 49.44%)  -0.7031* C  5 s(  0.30%)p99.99( 99.64%)d 0.19(  0.06%)
                                         0.0000 -0.0550 -0.0024 -0.8184  0.0201
                                         0.2910 -0.0078 -0.4912  0.0152  0.0015
                                         0.0087 -0.0075 -0.0128  0.0170
  39. (0.02353) BD*( 1) C  4- H 14
               ( 39.05%)   0.6249* C  4 s( 26.64%)p 2.75( 73.33%)d 0.00(  0.03%)
                                         0.0000 -0.5157  0.0200 -0.3699  0.0013
                                        -0.7646  0.0008  0.1088 -0.0089 -0.0117
                                         0.0022  0.0028  0.0103  0.0081
               ( 60.95%)  -0.7807* H 14 s( 99.89%)p 0.00(  0.11%)
                                        -0.9994  0.0048  0.0138  0.0300 -0.0021
  40. (0.01317) BD*( 1) C  5- H 15
               ( 39.76%)   0.6306* C  5 s( 29.28%)p 2.41( 70.69%)d 0.00(  0.04%)
                                         0.0000 -0.5410  0.0090  0.3850  0.0119
                                         0.7325 -0.0026 -0.1469 -0.0179 -0.0126
                                         0.0025  0.0025  0.0110  0.0090
               ( 60.24%)  -0.7761* H 15 s( 99.90%)p 0.00(  0.10%)
                                        -0.9995  0.0032 -0.0139 -0.0275  0.0050
  41. (0.00951) BD*( 1) C  5- H 16
               ( 39.45%)   0.6281* C  5 s( 29.25%)p 2.42( 70.71%)d 0.00(  0.04%)
                                         0.0000 -0.5409  0.0039  0.1633  0.0085
                                        -0.5993  0.0080 -0.5666 -0.0089  0.0029
                                         0.0037 -0.0163  0.0099 -0.0019
               ( 60.55%)  -0.7781* H 16 s( 99.91%)p 0.00(  0.09%)
                                        -0.9995  0.0017 -0.0052  0.0224  0.0203
  42. (0.01911) BD*( 1) C  6- C  7
               ( 48.78%)   0.6985* C  6 s( 51.65%)p 0.93( 48.29%)d 0.00(  0.07%)
                                         0.0000 -0.7180 -0.0308 -0.2541 -0.0105
                                         0.4655  0.0183  0.4481  0.0188  0.0109
                                         0.0108 -0.0197  0.0069 -0.0037
               ( 51.22%)  -0.7157* C  7 s( 53.17%)p 0.88( 46.74%)d 0.00(  0.08%)
                                         0.0000 -0.7291 -0.0099  0.2532 -0.0030
                                        -0.4395  0.0037 -0.4584  0.0037  0.0118
                                         0.0119 -0.0214  0.0071 -0.0044
  43. (0.03002) BD*( 2) C  6- C  7
               ( 50.16%)   0.7082* C  6 s(  0.00%)p 1.00( 99.94%)d 0.00(  0.06%)
                                         0.0000  0.0014 -0.0010 -0.8944  0.0062
                                        -0.0600 -0.0046 -0.4424  0.0006  0.0141
                                         0.0101  0.0081 -0.0095  0.0124
               ( 49.84%)  -0.7060* C  7 s(  0.00%)p 1.00( 99.93%)d 0.00(  0.07%)
                                         0.0000  0.0014 -0.0026 -0.8953  0.0055
                                        -0.0584 -0.0018 -0.4409  0.0007 -0.0145
                                        -0.0109 -0.0086  0.0093 -0.0129
  44. (0.03359) BD*( 3) C  6- C  7
               ( 50.09%)   0.7077* C  6 s(  0.02%)p99.99( 99.92%)d 3.66(  0.06%)
                                         0.0000  0.0113  0.0060  0.2535  0.0000
                                         0.7471  0.0001 -0.6139  0.0036  0.0020
                                        -0.0090 -0.0019  0.0147  0.0173
               ( 49.91%)  -0.7065* C  7 s(  0.01%)p 1.00( 99.93%)d 0.00(  0.07%)
                                         0.0000  0.0073  0.0027  0.2472 -0.0014
                                         0.7584 -0.0026 -0.6024  0.0042 -0.0030
                                         0.0098  0.0026 -0.0151 -0.0178
  45. (0.00712) BD*( 1) C  7- H 17
               ( 38.28%)   0.6187* C  7 s( 46.68%)p 1.14( 53.28%)d 0.00(  0.05%)
                                         0.0000 -0.6832  0.0068 -0.2695 -0.0072
                                         0.4771  0.0122  0.4818  0.0124  0.0089
                                         0.0090 -0.0161  0.0053 -0.0033
               ( 61.72%)  -0.7856* H 17 s( 99.90%)p 0.00(  0.10%)
                                        -0.9995  0.0006  0.0120 -0.0211 -0.0214
  46. (0.00324) RY ( 1) C  1            s(  9.03%)p 9.40( 84.89%)d 0.67(  6.08%)
                                         0.0000  0.0113  0.3003  0.0013  0.1035
                                        -0.0073 -0.4203  0.0147  0.8132 -0.1304
                                         0.1785 -0.0521 -0.0292  0.0916
  47. (0.00213) RY ( 2) C  1            s(  4.67%)p17.89( 83.63%)d 2.50( 11.69%)
                                         0.0000  0.0059  0.2161  0.0030  0.1524
                                        -0.0097 -0.7549 -0.0069 -0.4930 -0.2832
                                        -0.1736  0.0743 -0.0329 -0.0019
  48. (0.00078) RY ( 3) C  1            s( 40.86%)p 1.33( 54.42%)d 0.12(  4.71%)
                                         0.0000  0.0100  0.6392 -0.0119  0.6456
                                         0.0015  0.3491 -0.0013 -0.0733  0.1361
                                        -0.1493  0.0585  0.0295 -0.0452
  49. (0.00018) RY ( 4) C  1            s( 37.54%)p 1.32( 49.71%)d 0.34( 12.75%)
                                         0.0000 -0.0159  0.6125  0.0132 -0.7014
                                         0.0033 -0.0231  0.0003 -0.0667  0.3391
                                        -0.1051  0.0317  0.0097 -0.0184
  50. (0.00005) RY ( 5) C  1            s(  0.29%)p29.05(  8.45%)d99.99( 91.25%)
  51. (0.00002) RY ( 6) C  1            s(  1.22%)p 4.93(  6.00%)d76.28( 92.79%)
  52. (0.00001) RY ( 7) C  1            s(  1.26%)p 3.09(  3.90%)d75.24( 94.84%)
  53. (0.00001) RY ( 8) C  1            s(  4.73%)p 1.40(  6.62%)d18.73( 88.64%)
  54. (0.00000) RY ( 9) C  1            s(  0.45%)p 5.51(  2.46%)d99.99( 97.09%)
  55. (0.00335) RY ( 1) C  2            s( 18.85%)p 3.66( 68.95%)d 0.65( 12.21%)
                                         0.0000 -0.0037  0.4341  0.0102  0.1787
                                         0.0191  0.7580  0.0056  0.2871 -0.1838
                                        -0.0157  0.1583  0.1662  0.1880
  56. (0.00186) RY ( 2) C  2            s(  0.31%)p99.99( 78.56%)d68.20( 21.13%)
                                         0.0000 -0.0175  0.0528  0.0035  0.7475
                                         0.0090 -0.0630 -0.0079 -0.4719 -0.2014
                                         0.3127 -0.1266  0.2116 -0.1104
  57. (0.00140) RY ( 3) C  2            s(  1.28%)p66.82( 85.84%)d10.02( 12.87%)
                                         0.0000 -0.0114  0.1128  0.0057 -0.5209
                                         0.0026  0.3068 -0.0030 -0.7021 -0.1535
                                         0.1605 -0.2060 -0.0787  0.1754
  58. (0.00079) RY ( 4) C  2            s(  3.67%)p 0.56(  2.05%)d25.69( 94.28%)
                                         0.0000  0.0016  0.1916 -0.0015  0.0425
                                        -0.0009 -0.1274 -0.0073  0.0491  0.5503
                                         0.5880  0.1616 -0.1111  0.5058
  59. (0.00053) RY ( 5) C  2            s(  2.74%)p 3.31(  9.08%)d32.18( 88.18%)
                                         0.0000 -0.0050  0.1655 -0.0046  0.1345
                                         0.0021 -0.1566  0.0003 -0.2195  0.2703
                                        -0.6530 -0.1517  0.3372  0.4955
  60. (0.00032) RY ( 6) C  2            s( 41.26%)p 0.45( 18.57%)d 0.97( 40.17%)
                                         0.0000  0.0001  0.6423 -0.0081 -0.0031
                                         0.0140 -0.4279  0.0101 -0.0473 -0.3926
                                        -0.1173  0.2728 -0.3969  0.0432
  61. (0.00023) RY ( 7) C  2            s( 22.29%)p 0.47( 10.55%)d 3.01( 67.16%)
                                         0.0000  0.0040  0.4721  0.0159 -0.2812
                                        -0.0079 -0.1611  0.0050  0.0122  0.2316
                                         0.1439 -0.0118  0.6061 -0.4793
  62. (0.00019) RY ( 8) C  2            s(  2.45%)p 6.60( 16.14%)d33.30( 81.41%)
                                         0.0000  0.0096  0.1561  0.0002 -0.0373
                                        -0.0051 -0.1459 -0.0165  0.3721 -0.2355
                                         0.1764 -0.8323 -0.0056  0.1867
  63. (0.00005) RY ( 9) C  2            s(  7.19%)p 1.44( 10.36%)d11.47( 82.45%)
  64. (0.00679) RY ( 1) C  3            s(  5.24%)p17.47( 91.60%)d 0.60(  3.16%)
                                         0.0000  0.0051  0.2289 -0.0239 -0.8303
                                        -0.0052 -0.3247  0.0037  0.3472 -0.0986
                                         0.0201  0.0201  0.1426  0.0268
  65. (0.00232) RY ( 2) C  3            s( 32.40%)p 1.66( 53.93%)d 0.42( 13.67%)
                                         0.0000 -0.0014  0.5692  0.0029  0.1115
                                        -0.0050 -0.4642  0.0015 -0.5580  0.0852
                                         0.0384  0.2602  0.0084  0.2454
  66. (0.00137) RY ( 3) C  3            s( 11.15%)p 6.07( 67.71%)d 1.89( 21.13%)
                                         0.0000 -0.0198  0.3334  0.0077  0.4255
                                        -0.0055 -0.1591 -0.0066  0.6860  0.1241
                                        -0.2040 -0.0925 -0.0318  0.3805
  67. (0.00106) RY ( 4) C  3            s( 38.38%)p 1.52( 58.44%)d 0.08(  3.18%)
                                         0.0000  0.0102  0.6194  0.0040 -0.1542
                                        -0.0082  0.7480  0.0002 -0.0321  0.0916
                                         0.1182 -0.0790 -0.0552  0.0104
  68. (0.00031) RY ( 5) C  3            s(  4.51%)p 0.13(  0.58%)d21.04( 94.91%)
                                         0.0000  0.0000  0.2124 -0.0035  0.0498
                                        -0.0020  0.0198 -0.0123 -0.0524 -0.3903
                                        -0.7870  0.0707  0.0302 -0.4142
  69. (0.00012) RY ( 6) C  3            s(  1.12%)p 7.20(  8.08%)d80.91( 90.80%)
                                         0.0000  0.0013  0.1059  0.0007 -0.0194
                                         0.0142 -0.2064  0.0150 -0.1934  0.1334
                                        -0.0574 -0.9346 -0.0288 -0.1122
  70. (0.00009) RY ( 7) C  3            s(  3.41%)p 2.74(  9.34%)d25.60( 87.25%)
  71. (0.00003) RY ( 8) C  3            s(  3.04%)p 2.93(  8.93%)d28.92( 88.03%)
  72. (0.00001) RY ( 9) C  3            s(  0.80%)p 1.85(  1.47%)d99.99( 97.73%)
  73. (0.00470) RY ( 1) C  4            s( 13.62%)p 5.80( 78.99%)d 0.54(  7.38%)
                                         0.0000  0.0093  0.3690 -0.0065  0.0956
                                         0.0176  0.6072 -0.0136 -0.6416 -0.0670
                                        -0.0353  0.0677  0.0745  0.2407
  74. (0.00323) RY ( 2) C  4            s(  2.48%)p34.87( 86.35%)d 4.51( 11.18%)
                                         0.0000 -0.0284  0.1548  0.0241  0.1894
                                         0.0086  0.5671 -0.0038  0.7109 -0.2458
                                        -0.0935  0.1954  0.0661 -0.0048
  75. (0.00222) RY ( 3) C  4            s( 15.78%)p 4.88( 77.02%)d 0.46(  7.19%)
                                         0.0000 -0.0085  0.3972 -0.0017 -0.8572
                                         0.0055  0.0735 -0.0391  0.1690  0.1424
                                         0.1562 -0.0134 -0.1301  0.1008
  76. (0.00064) RY ( 4) C  4            s( 56.81%)p 0.33( 18.93%)d 0.43( 24.26%)
                                         0.0000  0.0020  0.7537  0.0197  0.1882
                                         0.0078 -0.3898 -0.0143  0.0355 -0.1482
                                        -0.2547 -0.1765  0.2421 -0.2570
  77. (0.00019) RY ( 5) C  4            s(  5.09%)p 1.23(  6.28%)d17.41( 88.63%)
                                         0.0000  0.0026  0.2256 -0.0092  0.1643
                                         0.0067 -0.1700  0.0149 -0.0807 -0.1157
                                         0.2799  0.6364 -0.5968 -0.1827
  78. (0.00008) RY ( 6) C  4            s(  0.76%)p18.23( 13.92%)d99.99( 85.31%)
  79. (0.00003) RY ( 7) C  4            s(  0.95%)p 4.20(  3.98%)d99.99( 95.07%)
  80. (0.00002) RY ( 8) C  4            s(  3.51%)p 3.54( 12.43%)d23.92( 84.06%)
  81. (0.00000) RY ( 9) C  4            s(  1.00%)p 2.27(  2.27%)d96.69( 96.73%)
  82. (0.00472) RY ( 1) C  5            s(  0.66%)p99.99( 92.87%)d 9.84(  6.47%)
                                         0.0000  0.0053  0.0810 -0.0020 -0.1083
                                        -0.0122 -0.8884 -0.0067 -0.3570 -0.1510
                                        -0.0236  0.1734  0.0195  0.1046
  83. (0.00090) RY ( 2) C  5            s( 17.97%)p 4.49( 80.70%)d 0.07(  1.33%)
[...]
  7 H                 0.5       0.4       0.2      -0.1      -0.1      -0.1
  8 H                -0.1      -0.0      -0.2      -0.1      -0.1       0.6
  9 H                 0.0      -0.2       0.1       0.0       0.1       0.1
 10 H               -27.2      -8.4      -1.9      -0.6      -0.7      -3.8
 11 H                 0.2       0.1       0.8      -0.1       0.2       0.6
 12 H                -0.2       0.2      -0.4       0.2      -0.2       0.3
 13 H                 0.3      -0.0      -0.3       0.0       0.0      -0.0

                     60        61        62        63        64        65   
                   0.00000   0.00000   0.00000   0.00000   0.00000   0.00000
                   0.00023   0.00019   0.00005   0.00679   0.00232   0.00137
                  --------  --------  --------  --------  --------  --------
  0 C               -17.2      -2.5      -2.7      -2.3       0.1      -0.8
  1 C               170.7     114.0     138.8     -13.4     -38.9      -4.5
  2 C               -19.0     -10.8      -6.6     169.1     167.2     153.6
  3 C                 1.1       1.9       0.8     -27.2      -1.4     -26.6
  4 C                 0.0       0.0       0.1       2.1       0.3      -0.7
  5 C               -29.4      -1.0     -13.2      -0.5      -4.0      -0.5
  6 C                -4.5       0.7      -2.0      -0.1       1.0       0.0
  7 H                -0.1      -0.1      -0.0       0.2       0.0       0.0
  8 H                -0.4       0.1       0.1       0.1       0.1      -0.2
  9 H                 0.2       0.1       0.1      -0.1      -0.2      -0.1
 10 H                -2.0      -2.2     -15.6       0.2       0.3      -0.2
 11 H                 0.1       0.1       0.2      -6.7     -11.5     -15.8
 12 H                 0.5      -0.5       0.1     -20.9     -12.7      -3.8
 13 H                 0.0       0.1      -0.0      -0.1      -0.1      -0.3
 14 H                -0.0      -0.0       0.0      -0.3      -0.2      -0.3

                     66        67        68        69        70        71   
                   0.00000   0.00000   0.00000   0.00000   0.00000   0.00000
                   0.00106   0.00031   0.00012   0.00009   0.00003   0.00001
                  --------  --------  --------  --------  --------  --------
  0 C                -4.3       0.1      -0.1       0.1       0.5       0.0
  1 C               -46.4      -7.6      -5.3      -0.1      -1.9      -0.9
  2 C               238.3     114.5     109.4     118.0     120.8     107.7
  3 C               -80.2      -2.6       0.1      -7.6      -4.7      -0.6
  4 C                -4.5      -0.4       0.1       1.5      -0.1       0.0
  5 C                -0.1       0.6       1.5      -0.3       0.2       0.2
  6 C                -0.2       0.1      -0.2      -0.0      -0.0      -0.0
  7 H                 0.5       0.0      -0.0      -0.0      -0.1      -0.0
  9 H                -0.1      -0.0      -0.0      -0.0      -0.0      -0.0
 10 H                 1.9       0.0      -0.1      -0.2      -0.1      -0.1
 11 H                -3.0      -3.7      -0.3      -2.5     -12.0      -2.4
 12 H                -0.0      -0.9      -5.0      -8.5      -2.4      -3.9
 13 H                -1.2       0.1      -0.1      -0.2      -0.1      -0.0
 14 H                -0.6      -0.0       0.1      -0.1      -0.0      -0.0

                     72        73        74        75        76        77   
                   0.00000   0.00000   0.00000   0.00000   0.00000   0.00000
                   0.00470   0.00323   0.00222   0.00064   0.00019   0.00008
                  --------  --------  --------  --------  --------  --------
  0 C                 0.8       0.2      -1.3       0.2      -0.1       0.0
  1 C                -5.0       0.5       0.4       0.6       0.1      -0.7
  2 C               -18.5     -25.0     -13.2     -74.5      -8.9      -5.6
  3 C               157.3     188.2     209.0     227.3     116.9     116.4
  4 C                -8.2     -47.6     -92.4     -51.5      -5.3      -5.8
  5 C                -0.7      -0.8      -0.1      -2.0      -0.0       0.1
  6 C                -0.1      -0.1       0.0      -0.2      -0.0      -0.0
  7 H                -1.1      -0.2      -1.2      -0.7      -0.0      -0.1
 10 H                -0.5      -0.5      -0.3      -0.0       0.0      -0.0
 11 H                 0.2       0.3       0.3      -0.7       0.2       0.0
 12 H                -0.0       0.0       0.3       1.7      -0.0       0.1
 13 H               -23.8     -15.7      -1.1      -1.3      -3.1      -4.5
 14 H                -0.0      -1.3      -0.1       1.7       0.1       0.3
 15 H                -0.2       2.1      -0.2      -0.6       0.2      -0.0

                     78        79        80        81        82        83   
                   0.00000   0.00000   0.00000   0.00000   0.00000   0.00000
                   0.00003   0.00002   0.00000   0.00472   0.00090   0.00032
                  --------  --------  --------  --------  --------  --------
  0 C                 0.0       0.2      -0.0       0.0       0.3      -0.0
  1 C                -0.0      -0.3      -0.1      -0.2       0.5      -0.2
  2 C                 0.1      -6.5      -1.8       2.3      -6.5      -0.0
  3 C               106.8     115.0     106.7     -33.2    -117.8      -6.0
  4 C                -0.4      -5.0      -1.6     168.1     231.2     109.7
  7 H                -0.1      -0.0      -0.0      -0.0      -0.3      -0.3
 11 H                 0.0       0.3       0.1      -0.0       0.3      -0.0
 12 H                 0.0      -0.0      -0.1      -0.7      -1.4      -0.0
 13 H                -6.6      -3.6      -3.1       0.7      -1.0      -0.0
 14 H                -0.1       0.0      -0.0     -18.9      -3.2      -1.6
 15 H                 0.1      -0.0       0.0     -18.1      -1.9      -1.5

                     84        85        86        87        88        89   
                   0.00000   0.00000   0.00000   0.00000   0.00000   0.00000
                   0.00010   0.00004   0.00000   0.00000   0.00000   0.00000
                  --------  --------  --------  --------  --------  --------
  2 C                 0.6       0.8       0.1      -0.1      -0.0       0.1
  3 C               -41.1      -4.7      -4.2      -3.6      -0.7      -3.5
  4 C               182.9     114.4     111.2     112.9     106.7     109.8
 12 H                -0.2       0.0      -0.1      -0.0      -0.0      -0.0
 13 H                -0.3      -0.2       0.0      -0.1      -0.0      -0.1
 14 H               -23.2      -3.6      -0.8      -5.1      -3.6      -2.4
 15 H               -18.5      -6.6      -6.2      -3.9      -2.3      -3.8

                     90        91        92        93        94        95   
                   0.00000   0.00000   0.00000   0.00000   0.00000   0.00000
                   0.00485   0.00451   0.00259   0.00098   0.00005   0.00003
                  --------  --------  --------  --------  --------  --------
  0 C                -0.1      -4.0       0.3      -0.3       0.1      -0.1
  1 C               -17.8     -15.0      -0.8    -138.4      -4.7      -5.7
  2 C                -4.5       0.0       0.5       3.7       0.0      -0.4
  3 C                -0.6      -0.5      -0.0      -2.3       0.0      -0.0
  5 C               213.6     187.3     357.0     284.7     110.1     111.6
  6 C               -86.7     -65.2    -251.4     -50.2      -5.3      -5.3
  7 H                -0.0      -0.1      -0.0      -0.2      -0.0      -0.0
  8 H                -0.2      -0.4       0.1      -0.0       0.0      -0.1
  9 H                -0.0      -0.5      -0.1      -0.1      -0.0      -0.0
 10 H                -0.2      -0.1      -1.2       3.1      -0.1       0.4
 11 H                -1.1      -0.0      -0.2      -0.5      -0.0      -0.0
 12 H                -0.4      -0.1       0.1      -0.0       0.0      -0.1
 16 H                -1.8      -1.3      -4.2       0.8      -0.1      -0.1

                     96        97        98        99       100       101   
                   0.00000   0.00000   0.00000   0.00000   0.00000   0.00000
                   0.00001   0.00001   0.00000   0.00092   0.00021   0.00015
                  --------  --------  --------  --------  --------  --------
  0 C                 0.1       0.7      -0.8       0.9      -0.0      -0.0
  1 C                -2.7      -6.2      -1.7     -38.1      -0.4      -0.3
  2 C                 0.6       0.1      -0.8       1.4      -0.0      -0.0
  3 C                 0.0       0.0      -0.0      -0.4      -0.0      -0.0
  5 C               105.4     111.8     106.7    -391.4     -11.6     -11.8
  6 C                -3.0      -6.1      -3.2     528.3     113.2     113.5
  8 H                 0.0      -0.1       0.0       0.0       0.0      -0.0
 10 H                -0.1       0.2      -0.0       1.0      -0.0      -0.0
 11 H                -0.1      -0.2      -0.0       0.0      -0.0       0.0
 16 H                -0.0      -0.1      -0.1      -1.7      -1.1      -1.3

                    102       103       104       105       106       107   
                   0.00000   0.00000   0.00000   0.00000   0.00000   0.00000
                   0.00010   0.00000   0.00000   0.00000   0.00000   0.00000
                  --------  --------  --------  --------  --------  --------
  1 C                 1.0      -0.3      -0.3      -0.1      -0.3      -0.0
  5 C                -6.1      -9.9      -8.3      -4.6      -8.4      -1.0
  6 C               148.1     117.7     118.6     106.9     117.2     101.3
 16 H               -43.0      -7.4     -10.0      -2.1      -8.5      -0.3

                    108       109       110       111       112       113   
                   0.00000   0.00000   0.00000   0.00000   0.00000   0.00000
                   0.00163   0.00015   0.00012   0.00003   0.00203   0.00014
                  --------  --------  --------  --------  --------  --------
  0 C               -38.5      -3.0      -3.2      -7.9     -34.2      -3.0
  1 C                 0.5      -0.2      -0.2      -0.2       0.7      -0.1
  2 C                 0.8      -0.1      -0.0      -0.1      -0.1      -0.0
  3 C                -3.5       0.0      -0.0      -0.1       0.0      -0.0
  4 C                -0.7      -0.0      -0.0      -0.0      -0.0      -0.0
  5 C                -0.1      -0.0      -0.0      -0.1      -0.8      -0.0
  7 H               142.5     104.0     104.3     108.6      -0.4      -0.4
  8 H                -0.4      -0.4      -0.4      -0.1     136.6     104.0
  9 H                -0.4      -0.3      -0.3      -0.1      -0.4      -0.4
 10 H                -0.2      -0.0      -0.1      -0.0      -0.0      -0.1
 12 H                -0.0      -0.0      -0.0      -0.0      -1.4      -0.0

                    114       115       116       117       118       119   
                   0.00000   0.00000   0.00000   0.00000   0.00000   0.00000
                   0.00010   0.00002   0.00143   0.00014   0.00010   0.00002
                  --------  --------  --------  --------  --------  --------
  0 C                -3.2      -7.8     -35.1      -2.9      -3.2      -8.0
  1 C                -0.3      -0.1       1.0      -0.2      -0.2      -0.2
  2 C                -0.0      -0.0      -0.4      -0.0      -0.0      -0.1
  5 C                -0.0      -0.1      -0.9      -0.0      -0.0      -0.0
  7 H                -0.4      -0.1      -0.3      -0.3      -0.4      -0.1
  8 H               104.5     108.2      -0.4      -0.4      -0.4      -0.1
  9 H                -0.4      -0.1     136.4     104.0     104.3     108.5
 10 H                -0.0      -0.0      -0.4      -0.0      -0.1      -0.0

                    120       121       122       123       124       125   
                   0.00000   0.00000   0.00000   0.00000   0.00000   0.00000
                   0.00393   0.00013   0.00007   0.00004   0.00244   0.00013
                  --------  --------  --------  --------  --------  --------
  0 C                 0.1      -0.4      -0.2      -0.1      -0.3      -0.0
  1 C               -38.3      -3.7      -3.2      -8.1       2.3      -0.0
  2 C                 2.0      -0.2      -0.2      -0.1     -36.2      -4.1
  3 C                -1.0      -0.2      -0.0      -0.0       0.3       0.0
  4 C                -0.1      -0.0      -0.0      -0.0       0.2      -0.0
  5 C                 1.6      -0.1      -0.3      -0.1      -2.1      -0.1
  6 C                 0.7      -0.0      -0.1      -0.0       0.0      -0.0
  7 H                -0.2      -0.1      -0.0       0.0      -0.0      -0.0
  9 H                -0.3      -0.0      -0.1      -0.0      -0.0      -0.0
 10 H               137.5     104.9     104.1     108.3      -0.3      -0.0
 11 H                -0.3      -0.0      -0.0       0.0     136.9     105.0
 12 H                -0.0      -0.0      -0.0      -0.0      -0.6      -0.6
 13 H                -1.7      -0.0      -0.0      -0.0      -0.3      -0.0

                    126       127       128       129       130       131   
                   0.00000   0.00000   0.00000   0.00000   0.00000   0.00000
                   0.00009   0.00003   0.00312   0.00011   0.00007   0.00003
                  --------  --------  --------  --------  --------  --------
  0 C                -0.0      -0.0      -0.4      -0.1      -0.0      -0.0
  1 C                -0.3      -0.2       0.6      -0.1      -0.2      -0.1
  2 C                -2.8      -7.8     -37.2      -3.8      -2.9      -7.5
  3 C                -0.3      -0.1       2.2      -0.1      -0.3      -0.2
  4 C                -0.0      -0.0      -2.2      -0.0      -0.0       0.0
  5 C                -0.1      -0.0      -0.6      -0.0      -0.2      -0.1
  8 H                -0.0      -0.0      -1.4      -0.0      -0.0      -0.1
 11 H               104.2     108.3      -0.6      -0.5      -0.5      -0.0
 12 H                -0.5      -0.0     141.6     104.7     104.4     108.1
 14 H                -0.0      -0.0      -2.0      -0.0      -0.0      -0.0

                    132       133       134       135       136       137   
                   0.00000   0.00000   0.00000   0.00000   0.00000   0.00000
                   0.00285   0.00019   0.00007   0.00005   0.00203   0.00023
                  --------  --------  --------  --------  --------  --------
  2 C                -1.3      -0.1      -0.2      -0.7      -1.5      -0.0
  3 C               -37.9      -3.0      -6.1      -6.9       0.8      -0.0
  4 C                -0.7      -0.1      -0.6       0.2     -42.3      -3.2
 10 H                -1.6      -0.0      -0.1      -0.0      -0.0      -0.0
 11 H                -0.3      -0.0       0.0       0.0      -0.0      -0.0
 12 H                 0.1      -0.0      -0.0      -0.0      -2.0      -0.0
 13 H               142.9     103.5     107.2     107.6       0.1      -0.0
 14 H                 0.1      -0.0      -0.0       0.0     146.2     103.4
 15 H                -1.2      -0.0      -0.1      -0.0      -1.2      -0.1

                    138       139       140       141       142       143   
                   0.00000   0.00000   0.00000   0.00000   0.00000   0.00000
                   0.00009   0.00005   0.00161   0.00023   0.00010   0.00004
                  --------  --------  --------  --------  --------  --------
  2 C                -0.0      -0.0       0.1      -0.0      -0.0      -0.0
  3 C                -0.2      -0.1       0.5      -0.0      -0.2       0.1
  4 C                -3.6      -8.2     -41.9      -3.2      -3.7      -8.5
 12 H                -0.0      -0.1      -0.0      -0.0      -0.0       0.0
 13 H                -0.0      -0.0      -1.2      -0.0       0.0      -0.1
 14 H               104.5     108.5      -1.2      -0.1      -0.7      -0.1
 15 H                -0.6      -0.1     143.7     103.4     104.6     108.6

                    144       145       146       147   
                   0.00000   0.00000   0.00000   0.00000
                   0.00031   0.00029   0.00026   0.00008
                  --------  --------  --------  --------
  1 C                -0.1      -0.0      -0.0       0.1
  5 C                -2.7      -0.1      -4.3       0.2
  6 C               -19.1      -3.5     -30.9     -15.1
 16 H               121.9     103.7     135.3     114.8

Storing NBOs: 1440.nbo
                                    *** NBOs were stored ***

                                *** returned from GENNBO program ***

-------
TIMINGS
-------

Total SCF time: 0 days 0 hours 0 min 6 sec 

Total time                  ....       6.038 sec
Sum of individual times     ....       6.553 sec  (108.5%)

Fock matrix formation       ....       3.911 sec  ( 64.8%)
  Coulomb formation         ....       2.091 sec  ( 53.5% of F)
  Split-RI-J                ....       2.083 sec  ( 53.3% of F)
  XC integration            ....       1.816 sec  ( 46.4% of F)
    Basis function eval.    ....       0.621 sec  ( 34.2% of XC)
    Density eval.           ....       0.332 sec  ( 18.3% of XC)
    XC-Functional eval.     ....       0.108 sec  (  5.9% of XC)
    XC-Potential eval.      ....       0.702 sec  ( 38.7% of XC)
Diagonalization             ....       0.024 sec  (  0.4%)
Density matrix formation    ....       0.003 sec  (  0.0%)
Population analysis         ....       1.461 sec  ( 24.2%)
Initial guess               ....       0.391 sec  (  6.5%)
Orbital Transformation      ....       0.000 sec  (  0.0%)
Orbital Orthonormalization  ....       0.000 sec  (  0.0%)
DIIS solution               ....       0.006 sec  (  0.1%)
SOSCF solution              ....       0.015 sec  (  0.2%)
Grid generation             ....       0.742 sec  ( 12.3%)
           ************************************************************
           *              Shut down parallel processing               *
           ************************************************************

-------------------------   --------------------
FINAL SINGLE POINT ENERGY      -272.090534644981
-------------------------   --------------------


                            ***************************************
                            *     ORCA property calculations      *
                            ***************************************

                                    ---------------------
                                    Active property flags
                                    ---------------------
   (+) Dipole Moment


------------------------------------------------------------------------------
                       ORCA ELECTRIC PROPERTIES CALCULATION
------------------------------------------------------------------------------

Dipole Moment Calculation                       ... on
Quadrupole Moment Calculation                   ... off
Polarizability Calculation                      ... off
GBWName                                         ... 1440.gbw
Electron density file                           ... 1440.scfp.tmp

-------------
DIPOLE MOMENT
-------------
                                X             Y             Z
Electronic contribution:      3.06374      -1.62294      -2.89998
Nuclear contribution   :     -3.12359       1.78054       3.02339
                        -----------------------------------------
Total Dipole Moment    :     -0.05985       0.15760       0.12341
                        -----------------------------------------
Magnitude (a.u.)       :      0.20892
Magnitude (Debye)      :      0.53104


Timings for individual modules:

Sum of individual times         ...        7.231 sec (=   0.121 min)
GTO integral calculation        ...        0.474 sec (=   0.008 min)   6.6 %
SCF iterations                  ...        6.757 sec (=   0.113 min)  93.4 %
                             ****ORCA TERMINATED NORMALLY****
TOTAL RUN TIME: 0 days 0 hours 0 minutes 7 seconds 634 msec
