
                                 *****************
                                 * O   R   C   A *
                                 *****************

           --- An Ab Initio, DFT and Semiempirical electronic structure package ---

                  #######################################################
                  #                        -***-                        #
                  #  Department of molecular theory and spectroscopy    #
                  #              Directorship: Frank Neese              #
                  # Max Planck Institute for Chemical Energy Conversion #
                  #                  D-45470 Muelheim/Ruhr              #
                  #                       Germany                       #
                  #                                                     #
                  #                  All rights reserved                #
                  #                        -***-                        #
                  #######################################################


                         Program Version 3.0.3 - RELEASE   -


 With contributions from (in alphabetic order):
   Ute Becker             : Parallelization
   Dmytro Bykov           : SCF Hessian
   Dmitry Ganyushin       : Spin-Orbit,Spin-Spin,Magnetic field MRCI
   Andreas Hansen         : Spin unrestricted coupled pair/coupled cluster methods
   Dimitrios Liakos       : Extrapolation schemes; parallel MDCI
   Robert Izsak           : Overlap fitted RIJCOSX, COSX-SCS-MP3
   Christian Kollmar      : KDIIS, OOCD, Brueckner-CCSD(T), CCSD density
   Simone Kossmann        : Meta GGA functionals, TD-DFT gradient, OOMP2, MP2 Hessian
   Taras Petrenko         : DFT Hessian,TD-DFT gradient, ASA and ECA modules, normal mode analysis, Resonance Raman, ABS, FL, XAS/XES, NRVS
   Christoph Reimann      : Effective Core Potentials
   Michael Roemelt        : Restricted open shell CIS
   Christoph Riplinger    : Improved optimizer, TS searches, QM/MM, DLPNO-CCSD
   Barbara Sandhoefer     : DKH picture change effects
   Igor Schapiro          : Molecular dynamics
   Kantharuban Sivalingam : CASSCF convergence, NEVPT2
   Boris Wezisla          : Elementary symmetry handling
   Frank Wennmohs         : Technical directorship


 We gratefully acknowledge several colleagues who have allowed us to
 interface, adapt or use parts of their codes:
   Stefan Grimme, W. Hujo, H. Kruse, T. Risthaus : VdW corrections, initial TS optimization,
                                                   DFT functionals, gCP
   Ed Valeev                                     : LibInt (2-el integral package), F12 methods
   Garnet Chan, S. Sharma, R. Olivares           : DMRG
   Ulf Ekstrom                                   : XCFun DFT Library
   Mihaly Kallay                                 : mrcc  (arbitrary order and MRCC methods)
   Andreas Klamt, Michael Diedenhofen            : otool_cosmo (COSMO solvation model)
   Frank Weinhold                                : gennbo (NPA and NBO analysis)
   Christopher J. Cramer and Donald G. Truhlar   : smd solvation model


 Your calculation uses the libint2 library for the computation of 2-el integrals
 For citations please refer to: http://libint.valeyev.net

 This ORCA versions uses:
   CBLAS   interface :  Fast vector & matrix operations
   LAPACKE interface :  Fast linear algebra routines
   SCALAPACK package :  Parallel linear algebra routines


Your calculation utilizes the basis: Ahlrichs-VDZ
Cite in your paper:
H - Kr: A. Schaefer, H. Horn and R. Ahlrichs, J. Chem. Phys. 97, 2571 (1992).

Your calculation utilizes the basis: Ahlrichs SVPalls1+f
Cite in your paper:
Rb - Xe: A. Schaefer, C. Huber and R. Ahlrichs, J. Chem. Phys. 100, 5829 (1994).

================================================================================
                                        WARNINGS
                       Please study these warnings very carefully!
================================================================================
Now building the actual basis set


INFO   : the flag for use of LIBINT has been found!

================================================================================
                                       INPUT FILE
================================================================================
NAME = 1692.inp
|  1> ! RI PBE def2-SVP def2-SVP/J NBO PAL2
|  2> % maxcore 2000
|  3> % output
|  4>     # printlevel mini
|  5>     print[ P_Basis ] 0
|  6>     print[ P_SCFInfo ] 1
|  7>     print[ P_SCFIterInfo ] 1
|  8>     print[ P_OrbEn ] 0
|  9>     print[ P_Cartesian ] 0
| 10> end
| 11> *xyz 0 1
| 12>  C        0.9404910000     0.0949150000     0.0019630000 
| 13>  C        2.4497030000     0.1176490000     0.0252060000 
| 14>  C        3.1884760000     1.1618230000     0.8865580000 
| 15>  C        4.2478440000     0.0933510000     1.2377080000 
| 16>  C        5.4893380000     0.1538690000     0.3695060000 
| 17>  C        3.2137740000    -0.9763670000     0.8126610000 
| 18>  N        3.6972690000    -2.1915630000     0.2101920000 
| 19>  H        0.5298440000     0.9798340000    -0.4926820000 
| 20>  H        0.5361370000     0.0663450000     1.0186310000 
| 21>  H        0.5632610000    -0.7830560000    -0.5317290000 
| 22>  H        2.8382110000     0.1483360000    -0.9995060000 
| 23>  H        2.5941820000     1.4511090000     1.7574830000 
| 24>  H        3.5430100000     2.0677530000     0.3901250000 
| 25>  H        4.5451000000     0.0465430000     2.2885830000 
| 26>  H        5.2428240000     0.2552340000    -0.6922410000 
| 27>  H        6.0985030000    -0.7452030000     0.4898050000 
| 28>  H        6.1042320000     1.0158820000     0.6409960000 
| 29>  H        2.6176240000    -1.2539350000     1.6891970000 
| 30>  H        4.1383210000    -2.0068010000    -0.6823490000 
| 31>  H        2.9437560000    -2.8467260000     0.0461150000 
| 32> *
| 33> 
| 34>                          ****END OF INPUT****
================================================================================

                       ****************************
                       * Single Point Calculation *
                       ****************************

--------------------------------
INTERNAL COORDINATES (ANGSTROEM)
--------------------------------
 C      0   0   0   0.000000     0.000     0.000
 C      1   0   0   1.509562     0.000     0.000
 C      2   1   0   1.542080   119.852     0.000
 C      3   2   1   1.545056    89.265   142.168
 C      4   3   2   1.516161   113.809    96.568
 C      4   3   2   1.547340    87.561   340.594
 N      6   4   3   1.439944   118.292   147.131
 H      1   2   3   1.093794   111.723    68.172
 H      1   2   3   1.094501   110.821   308.180
 H      1   2   3   1.094515   111.356   188.268
 H      2   1   3   1.096319   109.897   231.941
 H      3   2   1   1.093335   111.327    28.766
 H      3   2   1   1.092176   117.599   262.567
 H      4   3   2   1.093110   115.757   224.363
 H      5   4   3   1.094692   112.006   314.084
 H      5   4   3   1.092650   111.138   193.218
 H      5   4   3   1.093100   110.479    73.429
 H      6   4   3   1.095789   108.600   270.150
 H      7   6   4   1.012568   111.166   294.939
 H      7   6   4   1.011900   111.359   175.180

---------------------------
INTERNAL COORDINATES (A.U.)
---------------------------
 C      0   0   0   0.000000     0.000     0.000
 C      1   0   0   2.852659     0.000     0.000
 C      2   1   0   2.914110   119.852     0.000
 C      3   2   1   2.919733    89.265   142.168
 C      4   3   2   2.865129   113.809    96.568
 C      4   3   2   2.924050    87.561   340.594
 N      6   4   3   2.721099   118.292   147.131
 H      1   2   3   2.066972   111.723    68.172
 H      1   2   3   2.068307   110.821   308.180
 H      1   2   3   2.068333   111.356   188.268
 H      2   1   3   2.071742   109.897   231.941
 H      3   2   1   2.066104   111.327    28.766
 H      3   2   1   2.063914   117.599   262.567
 H      4   3   2   2.065679   115.757   224.363
 H      5   4   3   2.068668   112.006   314.084
 H      5   4   3   2.064810   111.138   193.218
 H      5   4   3   2.065660   110.479    73.429
 H      6   4   3   2.070742   108.600   270.150
 H      7   6   4   1.913476   111.166   294.939
 H      7   6   4   1.912214   111.359   175.180



           ************************************************************
           *        Program running with 2 parallel MPI-processes     *
           *              working on a common directory               *
           ************************************************************
------------------------------------------------------------------------------
                           ORCA GTO INTEGRAL CALCULATION
                           -- RI-GTO INTEGRALS CHOSEN --
------------------------------------------------------------------------------

                         BASIS SET STATISTICS AND STARTUP INFO

Gaussian basis set:
 # of primitive gaussian shells          ...  149
 # of primitive gaussian functions       ...  259
 # of contracted shells                  ...   81
 # of contracted basis functions         ...  163
 Highest angular momentum                ...    2
 Maximum contraction depth               ...    5
Auxiliary gaussian basis set:
 # of primitive gaussian shells          ...  272
 # of primitive gaussian functions       ...  698
 # of contracted shells                  ...  170
 # of contracted aux-basis functions     ...  486
 Highest angular momentum                ...    4
 Maximum contraction depth               ...    7
Ratio of auxiliary to basis functions    ...  2.98
Integral package used                  ... LIBINT
 One Electron integrals                  ... done
 Ordering auxiliary basis shells         ... done
 Integral threshhold             Thresh  ...  1.000e-10
 Primitive cut-off               TCut    ...  1.000e-11
 Pre-screening matrix                    ... done
 Shell pair data                         ... 
 Ordering of the shell pairs             ... done (   0.001 sec) 3228 of 3321 pairs
 Determination of significant pairs      ... done (   0.000 sec)
 Creation of shell pair data             ... done (   0.001 sec)
 Storage of shell pair data              ... done (   0.001 sec)
 Shell pair data done in (   0.002 sec)
 Computing two index integrals           ... done
 Cholesky decomposition of the V-matrix  ... done


Timings:
 Total evaluation time                   ...   0.162 sec (  0.003 min)
 One electron matrix time                ...   0.023 sec (  0.000 min) = 14.0%
 Schwartz matrix evaluation time         ...   0.075 sec (  0.001 min) = 46.3%
 Two index repulsion integral time       ...   0.005 sec (  0.000 min) =  2.9%
 Cholesky decomposition of V             ...   0.004 sec (  0.000 min) =  2.8%
 Three index repulsion integral time     ...   0.000 sec (  0.000 min) =  0.0%

           ************************************************************
           *              Shut down parallel processing               *
           ************************************************************


           ************************************************************
           *        Program running with 2 parallel MPI-processes     *
           *              working on a common directory               *
           ************************************************************
-------------------------------------------------------------------------------
                                 ORCA SCF
-------------------------------------------------------------------------------

------------
SCF SETTINGS
------------
Hamiltonian:
 Density Functional     Method          .... DFT(GTOs)
 Exchange Functional    Exchange        .... PBE
   PBE kappa parameter  XKappa          ....  0.804000
 Correlation Functional Correlation     .... PBE
 LDA part of GGA corr.  LDAOpt          .... PW91-LDA
 Gradients option       PostSCFGGA      .... off
   NL short-range parameter             ....  6.400000
 RI-approximation to the Coulomb term is turned on
   Number of auxiliary basis functions  .... 486


General Settings:
 Integral files         IntName         .... 1692
 Hartree-Fock type      HFTyp           .... RHF
 Total Charge           Charge          ....    0
 Multiplicity           Mult            ....    1
 Number of Electrons    NEL             ....   56
 Basis Dimension        Dim             ....  163
 Nuclear Repulsion      ENuc            ....    328.3901705965 Eh

Convergence Acceleration:
 DIIS                   CNVDIIS         .... on
   Start iteration      DIISMaxIt       ....    12
   Startup error        DIISStart       ....  0.200000
   # of expansion vecs  DIISMaxEq       ....     5
   Bias factor          DIISBfac        ....   1.050
   Max. coefficient     DIISMaxC        ....  10.000
 Newton-Raphson         CNVNR           .... off
 SOSCF                  CNVSOSCF        .... on
   Start iteration      SOSCFMaxIt      ....   150
   Startup grad/error   SOSCFStart      ....  0.003300
 Level Shifting         CNVShift        .... on
   Level shift para.    LevelShift      ....    0.2500
   Turn off err/grad.   ShiftErr        ....    0.0010
 Zerner damping         CNVZerner       .... off
 Static damping         CNVDamp         .... on
   Fraction old density DampFac         ....    0.7000
   Max. Damping (<1)    DampMax         ....    0.9800
   Min. Damping (>=0)   DampMin         ....    0.0000
   Turn off err/grad.   DampErr         ....    0.1000
 Fernandez-Rico         CNVRico         .... off

SCF Procedure:
 Maximum # iterations   MaxIter         ....   125
 SCF integral mode      SCFMode         .... Direct
   Integral package                     .... LIBINT
 Reset frequeny         DirectResetFreq ....    20
 Integral Threshold     Thresh          ....  1.000e-10 Eh
 Primitive CutOff       TCut            ....  1.000e-11 Eh

Convergence Tolerance:
 Convergence Check Mode ConvCheckMode   .... Total+1el-Energy
 Energy Change          TolE            ....  1.000e-06 Eh
 1-El. energy change                    ....  1.000e-03 Eh
 Orbital Gradient       TolG            ....  5.000e-05
 Orbital Rotation angle TolX            ....  5.000e-05
 DIIS Error             TolErr          ....  1.000e-06


Diagonalization of the overlap matrix:
Smallest eigenvalue                        ... 4.398e-04
Time for diagonalization                   ...    0.015 sec
Threshold for overlap eigenvalues          ... 1.000e-08
Number of eigenvalues below threshold      ... 0
Time for construction of square roots      ...    0.003 sec
Total time needed                          ...    0.018 sec

-------------------
DFT GRID GENERATION
-------------------

General Integration Accuracy     IntAcc      ...  4.340
Radial Grid Type                 RadialGrid  ... Gauss-Chebyshev
Angular Grid (max. acc.)         AngularGrid ... Lebedev-110
Angular grid pruning method      GridPruning ... 3 (G Style)
Weight generation scheme         WeightScheme... Becke
Basis function cutoff            BFCut       ...    1.0000e-10
Integration weight cutoff        WCut        ...    1.0000e-14
Grids for H and He will be reduced by one unit

# of grid points (after initial pruning)     ...  21960 (   0.0 sec)
# of grid points (after weights+screening)   ...  19998 (   0.1 sec)
nearest neighbour list constructed           ...    0.0 sec
Grid point re-assignment to atoms done       ...    0.0 sec
Grid point division into batches done        ...    0.0 sec
Reduced shell lists constructed in    0.1 sec

Total number of grid points                  ...    19998
Total number of batches                      ...      323
Average number of points per batch           ...       61
Average number of grid points per atom       ...     1000
Average number of shells per batch           ...    63.82 (78.79%)
Average number of basis functions per batch  ...   126.09 (77.36%)
Average number of large shells per batch     ...    50.57 (79.24%)
Average number of large basis fcns per batch ...    97.25 (77.12%)
Maximum spatial batch extension              ...  19.34, 25.60, 19.05 au
Average spatial batch extension              ...   1.38,  1.38,  1.37 au

Time for grid setup =    0.175 sec

------------------------------
INITIAL GUESS: MODEL POTENTIAL
------------------------------
Loading Hartree-Fock densities                     ... done
Calculating cut-offs                               ... done
Setting up the integral package                    ... done
Initializing the effective Hamiltonian             ... done
Starting the Coulomb interaction                   ... done (   0.1 sec)
Reading the grid                                   ... done
Mapping shells                                     ... done
Starting the XC term evaluation                    ... done (   0.2 sec)
  promolecular density results
     # of electrons  =     56.008544112
     EX              =    -41.094507366
     EC              =     -1.837881987
     EX+EC           =    -42.932389353
Transforming the Hamiltonian                       ... done (   0.0 sec)
Diagonalizing the Hamiltonian                      ... done (   0.0 sec)
Back transforming the eigenvectors                 ... done (   0.0 sec)
Now organizing SCF variables                       ... done
                      ------------------
                      INITIAL GUESS DONE (   0.5 sec)
                      ------------------
--------------
SCF ITERATIONS
--------------
ITER       Energy         Delta-E        Max-DP      RMS-DP      [F,P]     Damp
               ***  Starting incremental Fock matrix formation  ***
  0   -290.3456820346   0.000000000000 0.08685454  0.00280479  0.2256261 0.7000
  1   -290.4640304702  -0.118348435582 0.04464502  0.00200463  0.0922052 0.7000
                               ***Turning on DIIS***
  2   -290.5039332294  -0.039902759134 0.05269968  0.00302349  0.0229131 0.0000
  3   -290.5614150877  -0.057481858370 0.03013419  0.00137588  0.0573685 0.0000
  4   -290.5811396199  -0.019724532187 0.00937393  0.00042716  0.0120677 0.0000
  5   -290.5821684952  -0.001028875259 0.00654872  0.00018442  0.0044799 0.0000
                      *** Initiating the SOSCF procedure ***
                           *** Shutting down DIIS ***
                      *** Re-Reading the Fockian *** 
                      *** Removing any level shift *** 
ITER      Energy       Delta-E        Grad      Rot      Max-DP    RMS-DP
  6   -290.58225849  -0.0000899950  0.000241  0.000241  0.002828  0.000107
               *** Restarting incremental Fock matrix formation ***
  7   -290.58226718  -0.0000086946  0.000125  0.000274  0.000855  0.000039
  8   -290.58226485   0.0000023383  0.000214  0.000173  0.000593  0.000024
  9   -290.58226837  -0.0000035223  0.000025  0.000032  0.000118  0.000004
 10   -290.58226834   0.0000000284  0.000042  0.000019  0.000073  0.000002
                 **** Energy Check signals convergence ****
              ***Rediagonalizing the Fockian in SOSCF/NRSCF***

               *****************************************************
               *                     SUCCESS                       *
               *           SCF CONVERGED AFTER  11 CYCLES          *
               *****************************************************

Setting up the final grid:

General Integration Accuracy     IntAcc      ...  4.670
Radial Grid Type                 RadialGrid  ... Gauss-Chebyshev
Angular Grid (max. acc.)         AngularGrid ... Lebedev-302
Angular grid pruning method      GridPruning ... 3 (G Style)
Weight generation scheme         WeightScheme... Becke
Basis function cutoff            BFCut       ...    1.0000e-10
Integration weight cutoff        WCut        ...    1.0000e-14
Grids for H and He will be reduced by one unit

# of grid points (after initial pruning)     ...  87606 (   0.0 sec)
# of grid points (after weights+screening)   ...  78404 (   0.2 sec)
nearest neighbour list constructed           ...    0.0 sec
Grid point re-assignment to atoms done       ...    0.0 sec
Grid point division into batches done        ...    0.2 sec
Reduced shell lists constructed in    0.5 sec

Total number of grid points                  ...    78404
Total number of batches                      ...     1234
Average number of points per batch           ...       63
Average number of grid points per atom       ...     3920
Average number of shells per batch           ...    60.05 (74.13%)
Average number of basis functions per batch  ...   117.64 (72.17%)
Average number of large shells per batch     ...    46.57 (77.56%)
Average number of large basis fcns per batch ...    88.83 (75.51%)
Maximum spatial batch extension              ...  16.52, 14.62, 19.89 au
Average spatial batch extension              ...   0.88,  0.88,  0.93 au

Final grid set up in    0.7 sec
Final integration                            ... done (   0.6 sec)
Change in XC energy                          ...     0.001559756
Integrated number of electrons               ...    56.000096254
Previous integrated no of electrons          ...    56.008614682

----------------
TOTAL SCF ENERGY
----------------

Total Energy       :         -290.58070863 Eh           -7907.10307 eV

Components:
Nuclear Repulsion  :          328.39017060 Eh            8935.95084 eV
Electronic Energy  :         -618.97087923 Eh          -16843.05391 eV

One Electron Energy:        -1042.01695381 Eh          -28354.72284 eV
Two Electron Energy:          423.04607458 Eh           11511.66893 eV

Virial components:
Potential Energy   :         -578.02056707 Eh          -15728.73926 eV
Kinetic Energy     :          287.43985844 Eh            7821.63619 eV
Virial Ratio       :            2.01092698


DFT components:
N(Alpha)           :       28.000048127164 electrons
N(Beta)            :       28.000048127164 electrons
N(Total)           :       56.000096254328 electrons
E(X)               :      -42.093783827180 Eh       
E(C)               :       -1.851309523814 Eh       
E(XC)              :      -43.945093350994 Eh       

---------------
SCF CONVERGENCE
---------------

  Last Energy change         ...   -5.0393e-08  Tolerance :   1.0000e-06
  Last MAX-Density change    ...    9.4801e-06  Tolerance :   1.0000e-05
  Last RMS-Density change    ...    4.0793e-07  Tolerance :   1.0000e-06
  Last Orbital Gradient      ...    1.8944e-06  Tolerance :   5.0000e-05
  Last Orbital Rotation      ...    3.1126e-06  Tolerance :   5.0000e-05

             **** THE GBW FILE WAS UPDATED (1692.gbw) ****
             **** DENSITY FILE WAS UPDATED (1692.scfp.tmp) ****
             **** ENERGY FILE WAS UPDATED (1692.en.tmp) ****

                    ********************************
                    * MULLIKEN POPULATION ANALYSIS *
                    ********************************

-----------------------
MULLIKEN ATOMIC CHARGES
-----------------------
   0 C :    0.070503
   1 C :   -0.147070
   2 C :    0.118889
   3 C :   -0.137286
   4 C :    0.029400
   5 C :   -0.026296
   6 N :   -0.122868
   7 H :    0.019878
   8 H :    0.003705
   9 H :    0.009417
  10 H :   -0.018750
  11 H :   -0.004745
  12 H :   -0.003556
  13 H :   -0.004598
  14 H :    0.005297
  15 H :    0.029635
  16 H :    0.021032
  17 H :   -0.013523
  18 H :    0.080796
  19 H :    0.090140
Sum of atomic charges:   -0.0000000

--------------------------------
MULLIKEN REDUCED ORBITAL CHARGES
--------------------------------
  0 C s       :     2.945180  s :     2.945180
      pz      :     0.988544  p :     2.958621
      px      :     0.973761
      py      :     0.996317
      dz2     :     0.004361  d :     0.025696
      dxz     :     0.006103
      dyz     :     0.004174
      dx2y2   :     0.005425
      dxy     :     0.005632
  1 C s       :     3.131401  s :     3.131401
      pz      :     1.021855  p :     2.973166
      px      :     0.976672
      py      :     0.974638
      dz2     :     0.007655  d :     0.042503
      dxz     :     0.009891
      dyz     :     0.006246
      dx2y2   :     0.009493
      dxy     :     0.009218
  2 C s       :     2.939590  s :     2.939590
      pz      :     0.973791  p :     2.908625
      px      :     0.953205
      py      :     0.981629
      dz2     :     0.005121  d :     0.032896
      dxz     :     0.006090
      dyz     :     0.006711
      dx2y2   :     0.007537
      dxy     :     0.007437
  3 C s       :     3.106357  s :     3.106357
      pz      :     1.028312  p :     2.989065
      px      :     0.995098
      py      :     0.965655
      dz2     :     0.009130  d :     0.041864
      dxz     :     0.009946
      dyz     :     0.004171
      dx2y2   :     0.007219
      dxy     :     0.011397
  4 C s       :     2.957946  s :     2.957946
      pz      :     0.987257  p :     2.986791
      px      :     0.989683
      py      :     1.009851
      dz2     :     0.008853  d :     0.025864
      dxz     :     0.004230
      dyz     :     0.001431
      dx2y2   :     0.002828
      dxy     :     0.008522
  5 C s       :     3.084453  s :     3.084453
      pz      :     1.007395  p :     2.882657
      px      :     0.990543
      py      :     0.884720
      dz2     :     0.008979  d :     0.059187
      dxz     :     0.008432
      dyz     :     0.013723
      dx2y2   :     0.012163
      dxy     :     0.015890
  6 N s       :     3.366250  s :     3.366250
      pz      :     1.264492  p :     3.738368
      px      :     1.322056
      py      :     1.151819
      dz2     :     0.005278  d :     0.018251
      dxz     :     0.002796
      dyz     :     0.002478
      dx2y2   :     0.002425
      dxy     :     0.005273
  7 H s       :     0.956327  s :     0.956327
      pz      :     0.007254  p :     0.023794
      px      :     0.005787
      py      :     0.010754
  8 H s       :     0.972529  s :     0.972529
      pz      :     0.012382  p :     0.023766
      px      :     0.005714
      py      :     0.005670
  9 H s       :     0.966772  s :     0.966772
      pz      :     0.007540  p :     0.023810
      px      :     0.005696
      py      :     0.010574
 10 H s       :     0.997190  s :     0.997190
      pz      :     0.011809  p :     0.021560
      px      :     0.005122
      py      :     0.004630
 11 H s       :     0.981908  s :     0.981908
      pz      :     0.010221  p :     0.022837
      px      :     0.007198
      py      :     0.005418
 12 H s       :     0.980837  s :     0.980837
      pz      :     0.006560  p :     0.022719
      px      :     0.005393
      py      :     0.010766
 13 H s       :     0.983145  s :     0.983145
      pz      :     0.012654  p :     0.021454
      px      :     0.004671
      py      :     0.004129
 14 H s       :     0.970892  s :     0.970892
      pz      :     0.012662  p :     0.023811
      px      :     0.005172
      py      :     0.005977
 15 H s       :     0.946832  s :     0.946832
      pz      :     0.005222  p :     0.023533
      px      :     0.007239
      py      :     0.011071
 16 H s       :     0.955352  s :     0.955352
      pz      :     0.005685  p :     0.023615
      px      :     0.007527
      py      :     0.010403
 17 H s       :     0.993233  s :     0.993233
      pz      :     0.009960  p :     0.020290
      px      :     0.006953
      py      :     0.003377
 18 H s       :     0.872619  s :     0.872619
      pz      :     0.020046  p :     0.046585
      px      :     0.016561
      py      :     0.009978
 19 H s       :     0.863124  s :     0.863124
      pz      :     0.012105  p :     0.046736
      px      :     0.017674
      py      :     0.016956


                     *******************************
                     * LOEWDIN POPULATION ANALYSIS *
                     *******************************

----------------------
LOEWDIN ATOMIC CHARGES
----------------------
   0 C :   -0.065645
   1 C :   -0.056406
   2 C :   -0.026741
   3 C :   -0.038004
   4 C :   -0.063974
   5 C :    0.001883
   6 N :   -0.090044
   7 H :    0.027301
   8 H :    0.021501
   9 H :    0.023463
  10 H :    0.015668
  11 H :    0.021377
  12 H :    0.014474
  13 H :    0.015746
  14 H :    0.019113
  15 H :    0.028607
  16 H :    0.028975
  17 H :    0.019925
  18 H :    0.048133
  19 H :    0.054648

-------------------------------
LOEWDIN REDUCED ORBITAL CHARGES
-------------------------------
  0 C s       :     2.836998  s :     2.836998
      pz      :     1.063277  p :     3.157137
      px      :     1.030443
      py      :     1.063417
      dz2     :     0.013483  d :     0.071510
      dxz     :     0.014414
      dyz     :     0.012093
      dx2y2   :     0.017258
      dxy     :     0.014262
  1 C s       :     2.854386  s :     2.854386
      pz      :     1.040365  p :     3.096524
      px      :     1.019359
      py      :     1.036800
      dz2     :     0.020681  d :     0.105496
      dxz     :     0.021537
      dyz     :     0.016979
      dx2y2   :     0.023694
      dxy     :     0.022605
  2 C s       :     2.845899  s :     2.845899
      pz      :     1.053412  p :     3.094685
      px      :     1.033850
      py      :     1.007424
      dz2     :     0.011258  d :     0.086156
      dxz     :     0.016689
      dyz     :     0.019458
      dx2y2   :     0.015613
      dxy     :     0.023138
  3 C s       :     2.850972  s :     2.850972
      pz      :     1.053665  p :     3.083320
      px      :     1.004320
      py      :     1.025335
      dz2     :     0.023888  d :     0.103713
      dxz     :     0.024997
      dyz     :     0.008904
      dx2y2   :     0.015203
      dxy     :     0.030721
  4 C s       :     2.835347  s :     2.835347
      pz      :     1.053260  p :     3.157541
      px      :     1.035660
      py      :     1.068621
      dz2     :     0.023101  d :     0.071085
      dxz     :     0.013208
      dyz     :     0.003536
      dx2y2   :     0.008399
      dxy     :     0.022841
  5 C s       :     2.839682  s :     2.839682
      pz      :     1.030017  p :     3.017169
      px      :     1.035651
      py      :     0.951502
      dz2     :     0.018874  d :     0.141266
      dxz     :     0.021345
      dyz     :     0.034271
      dx2y2   :     0.023462
      dxy     :     0.043313
  6 N s       :     3.113532  s :     3.113532
      pz      :     1.329898  p :     3.932475
      px      :     1.370692
      py      :     1.231886
      dz2     :     0.011870  d :     0.044037
      dxz     :     0.006594
      dyz     :     0.006394
      dx2y2   :     0.005707
      dxy     :     0.013472
  7 H s       :     0.906090  s :     0.906090
      pz      :     0.018287  p :     0.066609
      px      :     0.017878
      py      :     0.030444
  8 H s       :     0.912587  s :     0.912587
      pz      :     0.036055  p :     0.065912
      px      :     0.016928
      py      :     0.012929
  9 H s       :     0.910271  s :     0.910271
      pz      :     0.019153  p :     0.066266
      px      :     0.017063
      py      :     0.030050
 10 H s       :     0.914470  s :     0.914470
      pz      :     0.037399  p :     0.069862
      px      :     0.017387
      py      :     0.015077
 11 H s       :     0.909518  s :     0.909518
      pz      :     0.031247  p :     0.069105
      px      :     0.022241
      py      :     0.015618
 12 H s       :     0.916380  s :     0.916380
      pz      :     0.019456  p :     0.069146
      px      :     0.016666
      py      :     0.033025
 13 H s       :     0.915194  s :     0.915194
      pz      :     0.038645  p :     0.069061
      px      :     0.016303
      py      :     0.014112
 14 H s       :     0.914025  s :     0.914025
      pz      :     0.038174  p :     0.066862
      px      :     0.015090
      py      :     0.013598
 15 H s       :     0.903963  s :     0.903963
      pz      :     0.013369  p :     0.067430
      px      :     0.021754
      py      :     0.032308
 16 H s       :     0.904368  s :     0.904368
      pz      :     0.014800  p :     0.066657
      px      :     0.022117
      py      :     0.029740
 17 H s       :     0.912970  s :     0.912970
      pz      :     0.032096  p :     0.067105
      px      :     0.021506
      py      :     0.013503
 18 H s       :     0.828292  s :     0.828292
      pz      :     0.060326  p :     0.123576
      px      :     0.038656
      py      :     0.024593
 19 H s       :     0.821081  s :     0.821081
      pz      :     0.028262  p :     0.124271
      px      :     0.051947
      py      :     0.044062


                      *****************************
                      * MAYER POPULATION ANALYSIS *
                      *****************************

  NA   - Mulliken gross atomic population
  ZA   - Total nuclear charge
  QA   - Mulliken gross atomic charge
  VA   - Mayer's total valence
  BVA  - Mayer's bonded valence
  FA   - Mayer's free valence

  ATOM       NA         ZA         QA         VA         BVA        FA
  0 C      5.9295     6.0000     0.0705     3.9499     3.9499    -0.0000
  1 C      6.1471     6.0000    -0.1471     4.1403     4.1403    -0.0000
  2 C      5.8811     6.0000     0.1189     3.9732     3.9732    -0.0000
  3 C      6.1373     6.0000    -0.1373     4.1525     4.1525     0.0000
  4 C      5.9706     6.0000     0.0294     3.9704     3.9704     0.0000
  5 C      6.0263     6.0000    -0.0263     4.1497     4.1497     0.0000
  6 N      7.1229     7.0000    -0.1229     3.1278     3.1278    -0.0000
  7 H      0.9801     1.0000     0.0199     0.9859     0.9859    -0.0000
  8 H      0.9963     1.0000     0.0037     0.9996     0.9996    -0.0000
  9 H      0.9906     1.0000     0.0094     0.9883     0.9883    -0.0000
 10 H      1.0187     1.0000    -0.0187     0.9885     0.9885    -0.0000
 11 H      1.0047     1.0000    -0.0047     0.9870     0.9870     0.0000
 12 H      1.0036     1.0000    -0.0036     0.9836     0.9836     0.0000
 13 H      1.0046     1.0000    -0.0046     0.9716     0.9716    -0.0000
 14 H      0.9947     1.0000     0.0053     0.9968     0.9968    -0.0000
 15 H      0.9704     1.0000     0.0296     0.9991     0.9991    -0.0000
 16 H      0.9790     1.0000     0.0210     0.9866     0.9866     0.0000
 17 H      1.0135     1.0000    -0.0135     0.9826     0.9826     0.0000
 18 H      0.9192     1.0000     0.0808     1.0135     1.0135     0.0000
 19 H      0.9099     1.0000     0.0901     0.9994     0.9994     0.0000

  Mayer bond orders larger than 0.1
B(  0-C ,  1-C ) :   1.1013 B(  0-C ,  7-H ) :   0.9583 B(  0-C ,  8-H ) :   0.9495 
B(  0-C ,  9-H ) :   0.9551 B(  1-C ,  2-C ) :   1.0886 B(  1-C ,  5-C ) :   1.0116 
B(  1-C , 10-H ) :   0.8794 B(  2-C ,  3-C ) :   1.0874 B(  2-C , 11-H ) :   0.9091 
B(  2-C , 12-H ) :   0.9201 B(  3-C ,  4-C ) :   1.0841 B(  3-C ,  5-C ) :   1.0317 
B(  3-C , 13-H ) :   0.9038 B(  4-C , 14-H ) :   0.9568 B(  4-C , 15-H ) :   0.9502 
B(  4-C , 16-H ) :   0.9545 B(  5-C ,  6-N ) :   1.1814 B(  5-C , 17-H ) :   0.8899 
B(  6-N , 18-H ) :   0.9495 B(  6-N , 19-H ) :   0.9633 


 *********************************** NBO 6.0 ***********************************
             N A T U R A L   A T O M I C   O R B I T A L   A N D
          N A T U R A L   B O N D   O R B I T A L   A N A L Y S I S
 ***************************** Kiya KiyaLu (100703) ****************************
  (c) Copyright 1996-2015 Board of Regents of the University of Wisconsin System
      on behalf of the Theoretical Chemistry Institute.  All rights reserved.

          Cite this program as:

          NBO 6.0.  E. D. Glendening, J. K. Badenhoop, A. E. Reed,
          J. E. Carpenter, J. A. Bohmann, C. M. Morales, C. R. Landis,
          and F. Weinhold (Theoretical Chemistry Institute, University
          of Wisconsin, Madison, WI, 2013); http://nbo6.chem.wisc.edu/

       /NPA    / : Natural Population Analysis
       /NBO    / : Natural Bond Orbital Analysis
       /AONBO  / : Write the AO to NBO transformation to lfn77
       /FILE   / : Set to 1692

 Filename set to 1692

 Job title:  *** NBO job generated by orca_scf

 Warning: MOs are non-orthogonal; program will continue

 Warning: -4697.86756 electrons reside outside the linearly independent MO space


 NATURAL POPULATIONS:  Natural atomic orbital occupancies

  NAO Atom No lang   Type(AO)    Occupancy      Energy
 -------------------------------------------------------
   1    C  1  s      Cor( 1s)     1.99916      -9.76347
   2    C  1  s      Val( 2s)     1.07710      -0.20294
   3    C  1  s      Ryd( 3s)     0.00040       0.83584
   4    C  1  px     Val( 2p)     1.10521      -0.05554
   5    C  1  px     Ryd( 3p)     0.00129       0.47616
   6    C  1  py     Val( 2p)     1.23092      -0.06124
   7    C  1  py     Ryd( 3p)     0.00316       0.61303
   8    C  1  pz     Val( 2p)     1.22943      -0.06138
   9    C  1  pz     Ryd( 3p)     0.00293       0.59277
  10    C  1  dxy    Ryd( 3d)     0.00047       2.13778
  11    C  1  dxz    Ryd( 3d)     0.00047       2.20808
  12    C  1  dyz    Ryd( 3d)     0.00042       2.25788
  13    C  1  dx2y2  Ryd( 3d)     0.00050       2.25095
  14    C  1  dz2    Ryd( 3d)     0.00041       2.26021

  15    C  2  s      Cor( 1s)     1.99894      -9.76163
  16    C  2  s      Val( 2s)     0.95323      -0.16379
  17    C  2  s      Ryd( 3s)     0.00244       0.92470
  18    C  2  px     Val( 2p)     1.06976      -0.06321
  19    C  2  px     Ryd( 3p)     0.00394       0.75147
  20    C  2  py     Val( 2p)     1.06384      -0.07089
  21    C  2  py     Ryd( 3p)     0.00171       0.59096
  22    C  2  pz     Val( 2p)     1.16903      -0.05423
  23    C  2  pz     Ryd( 3p)     0.00371       0.77613
  24    C  2  dxy    Ryd( 3d)     0.00071       2.08070
  25    C  2  dxz    Ryd( 3d)     0.00102       2.24039
  26    C  2  dyz    Ryd( 3d)     0.00056       2.11565
  27    C  2  dx2y2  Ryd( 3d)     0.00093       2.13714
  28    C  2  dz2    Ryd( 3d)     0.00059       2.29067

  29    C  3  s      Cor( 1s)     1.99907      -9.75930
  30    C  3  s      Val( 2s)     1.01561      -0.17972
  31    C  3  s      Ryd( 3s)     0.00126       0.91279
  32    C  3  px     Val( 2p)     1.11053      -0.06496
  33    C  3  px     Ryd( 3p)     0.00353       0.64182
  34    C  3  py     Val( 2p)     1.13122      -0.04698
  35    C  3  py     Ryd( 3p)     0.00492       0.56415
  36    C  3  pz     Val( 2p)     1.16818      -0.05879
  37    C  3  pz     Ryd( 3p)     0.00279       0.71474
  38    C  3  dxy    Ryd( 3d)     0.00063       2.23258
  39    C  3  dxz    Ryd( 3d)     0.00063       2.22862
  40    C  3  dyz    Ryd( 3d)     0.00060       2.27127
  41    C  3  dx2y2  Ryd( 3d)     0.00085       2.08888
  42    C  3  dz2    Ryd( 3d)     0.00052       2.10450

  43    C  4  s      Cor( 1s)     1.99894      -9.76313
  44    C  4  s      Val( 2s)     0.94885      -0.15999
  45    C  4  s      Ryd( 3s)     0.00128       0.92774
  46    C  4  px     Val( 2p)     1.04559      -0.05790
  47    C  4  px     Ryd( 3p)     0.00502       0.63811
  48    C  4  py     Val( 2p)     1.04739      -0.06731
  49    C  4  py     Ryd( 3p)     0.00202       0.58737
  50    C  4  pz     Val( 2p)     1.18981      -0.05071
  51    C  4  pz     Ryd( 3p)     0.00590       0.84206
  52    C  4  dxy    Ryd( 3d)     0.00093       2.19353
  53    C  4  dxz    Ryd( 3d)     0.00095       2.23430
  54    C  4  dyz    Ryd( 3d)     0.00041       1.98920
  55    C  4  dx2y2  Ryd( 3d)     0.00073       2.02144
  56    C  4  dz2    Ryd( 3d)     0.00083       2.37678

  57    C  5  s      Cor( 1s)     1.99918      -9.76161
  58    C  5  s      Val( 2s)     1.07964      -0.20267
  59    C  5  s      Ryd( 3s)     0.00086       0.85630
  60    C  5  px     Val( 2p)     1.15200      -0.05947
  61    C  5  px     Ryd( 3p)     0.00279       0.54101
  62    C  5  py     Val( 2p)     1.24204      -0.06068
  63    C  5  py     Ryd( 3p)     0.00290       0.64586
  64    C  5  pz     Val( 2p)     1.18348      -0.05860
  65    C  5  pz     Ryd( 3p)     0.00161       0.56003
  66    C  5  dxy    Ryd( 3d)     0.00080       2.35690
  67    C  5  dxz    Ryd( 3d)     0.00040       2.19552
  68    C  5  dyz    Ryd( 3d)     0.00015       2.05892
  69    C  5  dx2y2  Ryd( 3d)     0.00027       2.12144
  70    C  5  dz2    Ryd( 3d)     0.00076       2.39950

  71    C  6  s      Cor( 1s)     1.99893      -9.78778
  72    C  6  s      Val( 2s)     0.90722      -0.14762
  73    C  6  s      Ryd( 3s)     0.00368       0.90176
  74    C  6  px     Val( 2p)     1.07779      -0.06415
  75    C  6  px     Ryd( 3p)     0.00426       0.68742
  76    C  6  py     Val( 2p)     0.92478      -0.04753
  77    C  6  py     Ryd( 3p)     0.00714       0.61289
  78    C  6  pz     Val( 2p)     1.09844      -0.06005
  79    C  6  pz     Ryd( 3p)     0.00305       0.75815
  80    C  6  dxy    Ryd( 3d)     0.00136       2.20995
  81    C  6  dxz    Ryd( 3d)     0.00079       2.24518
  82    C  6  dyz    Ryd( 3d)     0.00114       2.18873
  83    C  6  dx2y2  Ryd( 3d)     0.00124       2.06349
  84    C  6  dz2    Ryd( 3d)     0.00092       2.11185

  85    N  7  s      Cor( 1s)     1.99940     -13.81707
  86    N  7  s      Val( 2s)     1.38406      -0.47204
  87    N  7  s      Ryd( 3s)     0.00042       1.12059
  88    N  7  px     Val( 2p)     1.55511      -0.16124
  89    N  7  px     Ryd( 3p)     0.00408       0.92529
  90    N  7  py     Val( 2p)     1.40283      -0.16474
  91    N  7  py     Ryd( 3p)     0.00291       0.89914
  92    N  7  pz     Val( 2p)     1.50675      -0.15583
  93    N  7  pz     Ryd( 3p)     0.00386       0.91814
  94    N  7  dxy    Ryd( 3d)     0.00117       2.65412
  95    N  7  dxz    Ryd( 3d)     0.00100       2.53559
  96    N  7  dyz    Ryd( 3d)     0.00067       2.51291
  97    N  7  dx2y2  Ryd( 3d)     0.00061       2.45945
  98    N  7  dz2    Ryd( 3d)     0.00112       2.61477

  99    H  8  s      Val( 1s)     0.77121       0.07319
 100    H  8  s      Ryd( 2s)     0.00177       0.33926
 101    H  8  px     Ryd( 2p)     0.00021       1.79054
 102    H  8  py     Ryd( 2p)     0.00057       2.11626
 103    H  8  pz     Ryd( 2p)     0.00029       1.86945

 104    H  9  s      Val( 1s)     0.78170       0.06737
 105    H  9  s      Ryd( 2s)     0.00212       0.36077
 106    H  9  px     Ryd( 2p)     0.00021       1.79525
 107    H  9  py     Ryd( 2p)     0.00016       1.72579
 108    H  9  pz     Ryd( 2p)     0.00072       2.21887

 109    H 10  s      Val( 1s)     0.77673       0.06817
 110    H 10  s      Ryd( 2s)     0.00278       0.33985
 111    H 10  px     Ryd( 2p)     0.00021       1.77391
 112    H 10  py     Ryd( 2p)     0.00055       2.10998
 113    H 10  pz     Ryd( 2p)     0.00031       1.88353

 114    H 11  s      Val( 1s)     0.77161       0.08063
 115    H 11  s      Ryd( 2s)     0.00414       0.36331
 116    H 11  px     Ryd( 2p)     0.00020       1.91800
 117    H 11  py     Ryd( 2p)     0.00011       1.69658
 118    H 11  pz     Ryd( 2p)     0.00090       2.21849

 119    H 12  s      Val( 1s)     0.77213       0.08073
 120    H 12  s      Ryd( 2s)     0.00255       0.34609
 121    H 12  px     Ryd( 2p)     0.00033       1.87785
 122    H 12  py     Ryd( 2p)     0.00016       1.86906
 123    H 12  pz     Ryd( 2p)     0.00060       2.08570

 124    H 13  s      Val( 1s)     0.77389       0.08715
 125    H 13  s      Ryd( 2s)     0.00231       0.33820
 126    H 13  px     Ryd( 2p)     0.00018       1.79703
 127    H 13  py     Ryd( 2p)     0.00059       2.17662
 128    H 13  pz     Ryd( 2p)     0.00028       1.90054

 129    H 14  s      Val( 1s)     0.76713       0.10357
 130    H 14  s      Ryd( 2s)     0.00314       0.33368
 131    H 14  px     Ryd( 2p)     0.00011       1.92727
 132    H 14  py     Ryd( 2p)     0.00007       1.71142
 133    H 14  pz     Ryd( 2p)     0.00096       2.23613

 134    H 15  s      Val( 1s)     0.78568       0.06565
 135    H 15  s      Ryd( 2s)     0.00167       0.38480
 136    H 15  px     Ryd( 2p)     0.00014       1.73208
 137    H 15  py     Ryd( 2p)     0.00019       1.73531
 138    H 15  pz     Ryd( 2p)     0.00081       2.27293

 139    H 16  s      Val( 1s)     0.76378       0.08352
 140    H 16  s      Ryd( 2s)     0.00274       0.35635
 141    H 16  px     Ryd( 2p)     0.00031       1.92774
 142    H 16  py     Ryd( 2p)     0.00060       2.14306
 143    H 16  pz     Ryd( 2p)     0.00015       1.72600

 144    H 17  s      Val( 1s)     0.76719       0.07771
 145    H 17  s      Ryd( 2s)     0.00160       0.34320
 146    H 17  px     Ryd( 2p)     0.00032       1.94055
 147    H 17  py     Ryd( 2p)     0.00054       2.11662
 148    H 17  pz     Ryd( 2p)     0.00019       1.75561

 149    H 18  s      Val( 1s)     0.77375       0.08392
 150    H 18  s      Ryd( 2s)     0.00304       0.34614
 151    H 18  px     Ryd( 2p)     0.00035       1.89969
 152    H 18  py     Ryd( 2p)     0.00012       1.89761
 153    H 18  pz     Ryd( 2p)     0.00072       2.06484

 154    H 19  s      Val( 1s)     0.63948       0.08680
 155    H 19  s      Ryd( 2s)     0.00257       0.41404
 156    H 19  px     Ryd( 2p)     0.00089       1.86056
 157    H 19  py     Ryd( 2p)     0.00043       1.79568
 158    H 19  pz     Ryd( 2p)     0.00116       2.23885

 159    H 20  s      Val( 1s)     0.63275       0.08765
 160    H 20  s      Ryd( 2s)     0.00257       0.38170
 161    H 20  px     Ryd( 2p)     0.00095       2.10021
 162    H 20  py     Ryd( 2p)     0.00088       2.03778
 163    H 20  pz     Ryd( 2p)     0.00065       1.75960

   1 low occupancy (<1.9990e) core orbital  found on  C  2
   1 low occupancy (<1.9990e) core orbital  found on  C  4
   1 low occupancy (<1.9990e) core orbital  found on  C  6


 Summary of Natural Population Analysis:

                                     Natural Population
             Natural    ---------------------------------------------
  Atom No    Charge        Core      Valence    Rydberg      Total
 --------------------------------------------------------------------
    C  1   -0.65188      1.99916     4.64266    0.01006     6.65188
    C  2   -0.27040      1.99894     4.25585    0.01561     6.27040
    C  3   -0.44034      1.99907     4.42554    0.01573     6.44034
    C  4   -0.24864      1.99894     4.23164    0.01805     6.24864
    C  5   -0.66687      1.99918     4.65716    0.01053     6.66687
    C  6   -0.03075      1.99893     4.00824    0.02358     6.03075
    N  7   -0.86399      1.99940     5.84875    0.01585     7.86399
    H  8    0.22595      0.00000     0.77121    0.00284     0.77405
    H  9    0.21509      0.00000     0.78170    0.00321     0.78491
    H 10    0.21941      0.00000     0.77673    0.00386     0.78059
    H 11    0.22304      0.00000     0.77161    0.00534     0.77696
    H 12    0.22425      0.00000     0.77213    0.00363     0.77575
    H 13    0.22276      0.00000     0.77389    0.00335     0.77724
    H 14    0.22859      0.00000     0.76713    0.00428     0.77141
    H 15    0.21151      0.00000     0.78568    0.00281     0.78849
    H 16    0.23242      0.00000     0.76378    0.00380     0.76758
    H 17    0.23017      0.00000     0.76719    0.00264     0.76983
    H 18    0.22201      0.00000     0.77375    0.00424     0.77799
    H 19    0.35547      0.00000     0.63948    0.00505     0.64453
    H 20    0.36221      0.00000     0.63275    0.00504     0.63779
 ====================================================================
 * Total *  0.00000     13.99362    41.84687    0.15951    56.00000

                                 Natural Population
 ---------------------------------------------------------
   Core                      13.99362 ( 99.9544% of   14)
   Valence                   41.84687 ( 99.6354% of   42)
   Natural Minimal Basis     55.84049 ( 99.7152% of   56)
   Natural Rydberg Basis      0.15951 (  0.2848% of   56)
 ---------------------------------------------------------

    Atom No         Natural Electron Configuration
 ----------------------------------------------------------------------------
      C  1      [core]2s( 1.08)2p( 3.57)3p( 0.01)
      C  2      [core]2s( 0.95)2p( 3.30)3p( 0.01)
      C  3      [core]2s( 1.02)2p( 3.41)3p( 0.01)
      C  4      [core]2s( 0.95)2p( 3.28)3p( 0.01)
      C  5      [core]2s( 1.08)2p( 3.58)3p( 0.01)
      C  6      [core]2s( 0.91)2p( 3.10)3p( 0.01)3d( 0.01)
      N  7      [core]2s( 1.38)2p( 4.46)3p( 0.01)
      H  8            1s( 0.77)
      H  9            1s( 0.78)
      H 10            1s( 0.78)
      H 11            1s( 0.77)
      H 12            1s( 0.77)
      H 13            1s( 0.77)
      H 14            1s( 0.77)
      H 15            1s( 0.79)
      H 16            1s( 0.76)
      H 17            1s( 0.77)
      H 18            1s( 0.77)
      H 19            1s( 0.64)
      H 20            1s( 0.63)


 NATURAL BOND ORBITAL ANALYSIS:

                            Occupancies       Lewis Structure    Low   High
         Max    Occ     -------------------  -----------------   occ   occ
  Cycle  Ctr   Thresh    Lewis   non-Lewis     CR  BD  nC  LP    (L)   (NL)
 ============================================================================
    1     2     1.90    55.52061   0.47939      7  20   0   1     0      0
 ----------------------------------------------------------------------------

 Structure accepted: No low occupancy Lewis orbitals

 -------------------------------------------------------
   Core                     13.99362 ( 99.954% of  14)
   Valence Lewis            41.52699 ( 98.874% of  42)
  ==================      =============================
   Total Lewis              55.52061 ( 99.144% of  56)
  -----------------------------------------------------
   Valence non-Lewis         0.37066 (  0.662% of  56)
   Rydberg non-Lewis         0.10873 (  0.194% of  56)
  ==================      =============================
   Total non-Lewis           0.47939 (  0.856% of  56)
 -------------------------------------------------------


     (Occupancy)   Bond orbital / Coefficients / Hybrids
 ------------------ Lewis ------------------------------------------------------
   1. (1.99916) CR ( 1) C  1            s(100.00%)
                                         1.0000  0.0000  0.0000  0.0000  0.0000
                                         0.0000  0.0000  0.0000  0.0000  0.0000
                                         0.0000  0.0000  0.0000  0.0000
   2. (1.99894) CR ( 1) C  2            s(100.00%)
                                         1.0000  0.0000  0.0000  0.0000  0.0000
                                         0.0000  0.0000  0.0000  0.0000  0.0000
                                         0.0000  0.0000  0.0000  0.0000
   3. (1.99907) CR ( 1) C  3            s(100.00%)
                                         1.0000  0.0000  0.0000  0.0000  0.0000
                                         0.0000  0.0000  0.0000  0.0000  0.0000
                                         0.0000  0.0000  0.0000  0.0000
   4. (1.99894) CR ( 1) C  4            s(100.00%)
                                         1.0000  0.0000  0.0000  0.0000  0.0000
                                         0.0000  0.0000  0.0000  0.0000  0.0000
                                         0.0000  0.0000  0.0000  0.0000
   5. (1.99918) CR ( 1) C  5            s(100.00%)
                                         1.0000  0.0000  0.0000  0.0000  0.0000
                                         0.0000  0.0000  0.0000  0.0000  0.0000
                                         0.0000  0.0000  0.0000  0.0000
   6. (1.99893) CR ( 1) C  6            s(100.00%)
                                         1.0000  0.0000  0.0000  0.0000  0.0000
                                         0.0000  0.0000  0.0000  0.0000  0.0000
                                         0.0000  0.0000  0.0000  0.0000
   7. (1.99940) CR ( 1) N  7            s(100.00%)
                                         1.0000  0.0000  0.0000  0.0000  0.0000
                                         0.0000  0.0000  0.0000  0.0000  0.0000
                                         0.0000  0.0000  0.0000  0.0000
   8. (1.93133) LP ( 1) N  7            s( 17.09%)p 4.85( 82.85%)d 0.00(  0.06%)
                                         0.0000  0.4133 -0.0069  0.6096  0.0272
                                        -0.4200 -0.0126  0.5281  0.0262  0.0133
                                        -0.0170  0.0109 -0.0054 -0.0010
   9. (1.98614) BD ( 1) C  1- C  2
               ( 49.46%)   0.7033* C  1 s( 31.45%)p 2.18( 68.52%)d 0.00(  0.03%)
                                         0.0000  0.5608  0.0016  0.8276 -0.0014
                                         0.0146  0.0028  0.0074 -0.0078  0.0005
                                         0.0000  0.0001  0.0155 -0.0088
               ( 50.54%)   0.7109* C  2 s( 29.28%)p 2.41( 70.69%)d 0.00(  0.03%)
                                         0.0000  0.5406  0.0228 -0.8404 -0.0060
                                        -0.0105  0.0026 -0.0073 -0.0207  0.0003
                                         0.0003 -0.0001  0.0158 -0.0078
  10. (1.98555) BD ( 1) C  1- H  8
               ( 61.36%)   0.7833* C  1 s( 22.97%)p 3.35( 77.00%)d 0.00(  0.04%)
                                         0.0000  0.4792  0.0019 -0.3335 -0.0117
                                         0.7086 -0.0081 -0.3954  0.0033 -0.0096
                                         0.0056 -0.0124 -0.0091 -0.0036
               ( 38.64%)   0.6216* H  8 s( 99.91%)p 0.00(  0.09%)
                                         0.9995 -0.0015  0.0116 -0.0244  0.0133
  11. (1.98701) BD ( 1) C  1- H  9
               ( 60.95%)   0.7807* C  1 s( 22.77%)p 3.39( 77.19%)d 0.00(  0.04%)
                                         0.0000  0.4772 -0.0025 -0.3302 -0.0183
                                        -0.0243  0.0010  0.8136 -0.0063  0.0004
                                        -0.0106 -0.0009  0.0022  0.0153
               ( 39.05%)   0.6249* H  9 s( 99.90%)p 0.00(  0.10%)
                                         0.9995 -0.0027  0.0123  0.0007 -0.0286
  12. (1.98490) BD ( 1) C  1- H 10
               ( 61.10%)   0.7816* C  1 s( 22.77%)p 3.39( 77.20%)d 0.00(  0.04%)
                                         0.0000  0.4771  0.0004 -0.3069 -0.0137
                                        -0.7046  0.0072 -0.4256  0.0021  0.0086
                                         0.0054  0.0135 -0.0095 -0.0028
               ( 38.90%)   0.6237* H 10 s( 99.91%)p 0.00(  0.09%)
                                         0.9995 -0.0024  0.0112  0.0237  0.0144
  13. (1.96808) BD ( 1) C  2- C  3
               ( 50.30%)   0.7092* C  2 s( 24.33%)p 3.11( 75.63%)d 0.00(  0.04%)
                                         0.0000  0.4932 -0.0039  0.3053 -0.0178
                                         0.6992  0.0174  0.4162 -0.0185  0.0110
                                         0.0106  0.0132 -0.0044  0.0002
               ( 49.70%)   0.7050* C  3 s( 25.97%)p 2.85( 73.98%)d 0.00(  0.05%)
                                         0.0000  0.5096 -0.0054 -0.4964 -0.0105
                                        -0.4550  0.0275 -0.5342 -0.0138  0.0110
                                         0.0089  0.0148 -0.0055 -0.0022
  14. (1.96877) BD ( 1) C  2- C  6
               ( 50.97%)   0.7139* C  2 s( 24.77%)p 3.04( 75.20%)d 0.00(  0.04%)
                                         0.0000  0.4975 -0.0106  0.3261 -0.0204
                                        -0.7133 -0.0118  0.3684 -0.0221 -0.0113
                                         0.0097 -0.0122 -0.0043 -0.0017
               ( 49.03%)   0.7002* C  6 s( 27.07%)p 2.69( 72.89%)d 0.00(  0.04%)
                                         0.0000  0.5201 -0.0128 -0.4920 -0.0126
                                         0.4562 -0.0275 -0.5271 -0.0040 -0.0113
                                         0.0087 -0.0140 -0.0047 -0.0029
  15. (1.96471) BD ( 1) C  2- H 11
               ( 61.49%)   0.7841* C  2 s( 21.49%)p 3.65( 78.47%)d 0.00(  0.03%)
                                         0.0000  0.4636 -0.0054  0.3050 -0.0151
                                         0.0340  0.0039 -0.8308 -0.0023  0.0005
                                        -0.0122 -0.0007  0.0030  0.0131
               ( 38.51%)   0.6206* H 11 s( 99.88%)p 0.00(  0.12%)
                                         0.9994 -0.0058 -0.0114 -0.0016  0.0332
  16. (1.96740) BD ( 1) C  3- C  4
               ( 49.94%)   0.7067* C  3 s( 25.87%)p 2.86( 74.08%)d 0.00(  0.04%)
                                         0.0000  0.5086 -0.0058  0.6689  0.0117
                                        -0.4710  0.0284  0.2653  0.0158 -0.0175
                                         0.0056 -0.0046 -0.0028 -0.0091
               ( 50.06%)   0.7075* C  4 s( 23.90%)p 3.18( 76.05%)d 0.00(  0.05%)
                                         0.0000  0.4888 -0.0050 -0.4908  0.0155
                                         0.7099  0.0173 -0.1182  0.0361 -0.0162
                                         0.0062 -0.0077  0.0011 -0.0103
  17. (1.98066) BD ( 1) C  3- H 12
               ( 61.41%)   0.7837* C  3 s( 23.19%)p 3.31( 76.78%)d 0.00(  0.04%)
                                         0.0000  0.4815  0.0016 -0.4740  0.0090
                                         0.2403  0.0261  0.6961 -0.0041 -0.0025
                                        -0.0154  0.0042  0.0049  0.0094
               ( 38.59%)   0.6212* H 12 s( 99.90%)p 0.00(  0.10%)
                                         0.9995 -0.0033  0.0167 -0.0100 -0.0254
  18. (1.98855) BD ( 1) C  3- H 13
               ( 61.54%)   0.7844* C  3 s( 24.77%)p 3.04( 75.20%)d 0.00(  0.03%)
                                         0.0000  0.4976  0.0088  0.2834 -0.0130
                                         0.7159  0.0081 -0.3984  0.0146  0.0078
                                        -0.0056 -0.0114 -0.0082 -0.0025
               ( 38.46%)   0.6202* H 13 s( 99.90%)p 0.00(  0.10%)
                                         0.9995 -0.0035 -0.0100 -0.0268  0.0139
  19. (1.98115) BD ( 1) C  4- C  5
               ( 50.35%)   0.7096* C  4 s( 27.64%)p 2.62( 72.32%)d 0.00(  0.03%)
                                         0.0000  0.5257  0.0074  0.6930  0.0314
                                         0.0338  0.0015 -0.4902  0.0236  0.0010
                                        -0.0157 -0.0008  0.0095  0.0029
               ( 49.65%)   0.7046* C  5 s( 30.75%)p 2.25( 69.21%)d 0.00(  0.03%)
                                         0.0000  0.5545 -0.0026 -0.6844  0.0110
                                        -0.0373  0.0042  0.4713  0.0099  0.0012
                                        -0.0148 -0.0003  0.0109 -0.0003
  20. (1.96216) BD ( 1) C  4- C  6
               ( 50.21%)   0.7086* C  4 s( 24.72%)p 3.04( 75.23%)d 0.00(  0.05%)
                                         0.0000  0.4972 -0.0086 -0.4737  0.0176
                                        -0.7019 -0.0165 -0.1824  0.0374  0.0155
                                         0.0074  0.0090  0.0009 -0.0085
               ( 49.79%)   0.7056* C  6 s( 25.70%)p 2.89( 74.26%)d 0.00(  0.04%)
                                         0.0000  0.5068 -0.0095  0.6685  0.0034
                                         0.4645 -0.0352  0.2796  0.0220  0.0168
                                         0.0059  0.0053 -0.0002 -0.0080
  21. (1.97739) BD ( 1) C  4- H 14
               ( 61.94%)   0.7870* C  4 s( 23.45%)p 3.26( 76.52%)d 0.00(  0.03%)
                                         0.0000  0.4842  0.0066  0.2310 -0.0009
                                        -0.0327  0.0008  0.8430 -0.0106 -0.0003
                                         0.0066 -0.0012  0.0019  0.0146
               ( 38.06%)   0.6169* H 14 s( 99.88%)p 0.00(  0.12%)
                                         0.9994 -0.0055 -0.0086  0.0017 -0.0336
  22. (1.98830) BD ( 1) C  5- H 15
               ( 60.76%)   0.7795* C  5 s( 22.97%)p 3.35( 76.99%)d 0.00(  0.04%)
                                         0.0000  0.4793 -0.0036 -0.2013  0.0206
                                         0.0764  0.0036 -0.8503 -0.0074 -0.0007
                                         0.0082 -0.0029  0.0012  0.0171
               ( 39.24%)   0.6264* H 15 s( 99.90%)p 0.00(  0.10%)
                                         0.9995 -0.0019  0.0046 -0.0037  0.0310
  23. (1.98600) BD ( 1) C  5- H 16
               ( 61.79%)   0.7861* C  5 s( 23.25%)p 3.30( 76.71%)d 0.00(  0.04%)
                                         0.0000  0.4822  0.0023  0.4924  0.0093
                                        -0.7185  0.0069  0.0908 -0.0057 -0.0151
                                         0.0023 -0.0031 -0.0068 -0.0093
               ( 38.21%)   0.6182* H 16 s( 99.90%)p 0.00(  0.10%)
                                         0.9995 -0.0026 -0.0171  0.0255 -0.0035
  24. (1.98511) BD ( 1) C  5- H 17
               ( 61.56%)   0.7846* C  5 s( 22.96%)p 3.35( 77.00%)d 0.00(  0.04%)
                                         0.0000  0.4792  0.0047  0.4980  0.0079
                                         0.6899 -0.0073  0.2143 -0.0088  0.0151
                                         0.0048  0.0070 -0.0061 -0.0079
               ( 38.44%)   0.6200* H 17 s( 99.91%)p 0.00(  0.09%)
                                         0.9996 -0.0011 -0.0173 -0.0234 -0.0070
  25. (1.99275) BD ( 1) C  6- N  7
               ( 39.88%)   0.6315* C  6 s( 24.88%)p 3.02( 75.02%)d 0.00(  0.10%)
                                         0.0000  0.4970  0.0423  0.2838  0.0046
                                        -0.7162 -0.0439 -0.3934  0.0033 -0.0146
                                        -0.0093  0.0193 -0.0167 -0.0070
               ( 60.12%)   0.7753* N  7 s( 36.75%)p 1.72( 63.19%)d 0.00(  0.06%)
                                         0.0000  0.6062 -0.0006 -0.2559  0.0012
                                         0.6660  0.0014  0.3505 -0.0041 -0.0125
                                        -0.0104  0.0067 -0.0107 -0.0136
  26. (1.96621) BD ( 1) C  6- H 18
               ( 61.39%)   0.7835* C  6 s( 22.16%)p 3.51( 77.81%)d 0.00(  0.04%)
                                         0.0000  0.4706 -0.0066 -0.4784  0.0175
                                        -0.2462 -0.0176  0.6985 -0.0102  0.0046
                                        -0.0142 -0.0059  0.0046  0.0092
               ( 38.61%)   0.6214* H 18 s( 99.88%)p 0.00(  0.12%)
                                         0.9994 -0.0057  0.0178  0.0083 -0.0289
  27. (1.98855) BD ( 1) N  7- H 19
               ( 68.18%)   0.8257* N  7 s( 23.24%)p 3.30( 76.68%)d 0.00(  0.08%)
                                         0.0000  0.4820  0.0051  0.4158 -0.0227
                                         0.1216  0.0153 -0.7602  0.0225  0.0065
                                        -0.0090 -0.0108 -0.0050  0.0232
               ( 31.82%)   0.5641* H 19 s( 99.82%)p 0.00(  0.18%)
                                         0.9991 -0.0042 -0.0236 -0.0058  0.0351
  28. (1.98627) BD ( 1) N  7- H 20
               ( 68.36%)   0.8268* N  7 s( 22.82%)p 3.38( 77.10%)d 0.00(  0.08%)
                                         0.0000  0.4777  0.0055 -0.6231  0.0054
                                        -0.6031  0.0320 -0.1342  0.0038  0.0187
                                         0.0096  0.0102  0.0141 -0.0078
               ( 31.64%)   0.5625* H 20 s( 99.82%)p 0.00(  0.18%)
                                         0.9991 -0.0029  0.0290  0.0309  0.0024
 ---------------- non-Lewis ----------------------------------------------------
  29. (0.01965) BD*( 1) C  1- C  2
               ( 50.54%)   0.7109* C  1 s( 31.45%)p 2.18( 68.52%)d 0.00(  0.03%)
                                         0.0000  0.5608  0.0016  0.8276 -0.0014
                                         0.0146  0.0028  0.0074 -0.0078  0.0005
                                         0.0000  0.0001  0.0155 -0.0088
               ( 49.46%)  -0.7033* C  2 s( 29.28%)p 2.41( 70.69%)d 0.00(  0.03%)
                                         0.0000  0.5406  0.0228 -0.8404 -0.0060
                                        -0.0105  0.0026 -0.0073 -0.0207  0.0003
                                         0.0003 -0.0001  0.0158 -0.0078
  30. (0.00778) BD*( 1) C  1- H  8
               ( 38.64%)   0.6216* C  1 s( 22.97%)p 3.35( 77.00%)d 0.00(  0.04%)
                                         0.0000 -0.4792 -0.0019  0.3335  0.0117
                                        -0.7086  0.0081  0.3954 -0.0033  0.0096
                                        -0.0056  0.0124  0.0091  0.0036
               ( 61.36%)  -0.7833* H  8 s( 99.91%)p 0.00(  0.09%)
                                        -0.9995  0.0015 -0.0116  0.0244 -0.0133
  31. (0.01087) BD*( 1) C  1- H  9
               ( 39.05%)   0.6249* C  1 s( 22.77%)p 3.39( 77.19%)d 0.00(  0.04%)
                                         0.0000 -0.4772  0.0025  0.3302  0.0183
                                         0.0243 -0.0010 -0.8136  0.0063 -0.0004
                                         0.0106  0.0009 -0.0022 -0.0153
               ( 60.95%)  -0.7807* H  9 s( 99.90%)p 0.00(  0.10%)
                                        -0.9995  0.0027 -0.0123 -0.0007  0.0286
  32. (0.00860) BD*( 1) C  1- H 10
               ( 38.90%)   0.6237* C  1 s( 22.77%)p 3.39( 77.20%)d 0.00(  0.04%)
                                         0.0000 -0.4771 -0.0004  0.3069  0.0137
                                         0.7046 -0.0072  0.4256 -0.0021 -0.0086
                                        -0.0054 -0.0135  0.0095  0.0028
               ( 61.10%)  -0.7816* H 10 s( 99.91%)p 0.00(  0.09%)
                                        -0.9995  0.0024 -0.0112 -0.0237 -0.0144
  33. (0.01887) BD*( 1) C  2- C  3
               ( 49.70%)   0.7050* C  2 s( 24.33%)p 3.11( 75.63%)d 0.00(  0.04%)
                                         0.0000 -0.4932  0.0039 -0.3053  0.0178
                                        -0.6992 -0.0174 -0.4162  0.0185 -0.0110
                                        -0.0106 -0.0132  0.0044 -0.0002
               ( 50.30%)  -0.7092* C  3 s( 25.97%)p 2.85( 73.98%)d 0.00(  0.05%)
                                         0.0000 -0.5096  0.0054  0.4964  0.0105
                                         0.4550 -0.0275  0.5342  0.0138 -0.0110
                                        -0.0089 -0.0148  0.0055  0.0022
  34. (0.05378) BD*( 1) C  2- C  6
               ( 49.03%)   0.7002* C  2 s( 24.77%)p 3.04( 75.20%)d 0.00(  0.04%)
                                         0.0000 -0.4975  0.0106 -0.3261  0.0204
                                         0.7133  0.0118 -0.3684  0.0221  0.0113
                                        -0.0097  0.0122  0.0043  0.0017
               ( 50.97%)  -0.7139* C  6 s( 27.07%)p 2.69( 72.89%)d 0.00(  0.04%)
                                         0.0000 -0.5201  0.0128  0.4920  0.0126
                                        -0.4562  0.0275  0.5271  0.0040  0.0113
                                        -0.0087  0.0140  0.0047  0.0029
  35. (0.02579) BD*( 1) C  2- H 11
               ( 38.51%)   0.6206* C  2 s( 21.49%)p 3.65( 78.47%)d 0.00(  0.03%)
                                         0.0000 -0.4636  0.0054 -0.3050  0.0151
                                        -0.0340 -0.0039  0.8308  0.0023 -0.0005
                                         0.0122  0.0007 -0.0030 -0.0131
               ( 61.49%)  -0.7841* H 11 s( 99.88%)p 0.00(  0.12%)
                                        -0.9994  0.0058  0.0114  0.0016 -0.0332
  36. (0.01738) BD*( 1) C  3- C  4
               ( 50.06%)   0.7075* C  3 s( 25.87%)p 2.86( 74.08%)d 0.00(  0.04%)
                                         0.0000  0.5086 -0.0058  0.6689  0.0117
                                        -0.4710  0.0284  0.2653  0.0158 -0.0175
                                         0.0056 -0.0046 -0.0028 -0.0091
               ( 49.94%)  -0.7067* C  4 s( 23.90%)p 3.18( 76.05%)d 0.00(  0.05%)
                                         0.0000  0.4888 -0.0050 -0.4908  0.0155
                                         0.7099  0.0173 -0.1182  0.0361 -0.0162
                                         0.0062 -0.0077  0.0011 -0.0103
  37. (0.01408) BD*( 1) C  3- H 12
               ( 38.59%)   0.6212* C  3 s( 23.19%)p 3.31( 76.78%)d 0.00(  0.04%)
                                         0.0000 -0.4815 -0.0016  0.4740 -0.0090
                                        -0.2403 -0.0261 -0.6961  0.0041  0.0025
                                         0.0154 -0.0042 -0.0049 -0.0094
               ( 61.41%)  -0.7837* H 12 s( 99.90%)p 0.00(  0.10%)
                                        -0.9995  0.0033 -0.0167  0.0100  0.0254
  38. (0.01592) BD*( 1) C  3- H 13
               ( 38.46%)   0.6202* C  3 s( 24.77%)p 3.04( 75.20%)d 0.00(  0.03%)
                                         0.0000 -0.4976 -0.0088 -0.2834  0.0130
                                        -0.7159 -0.0081  0.3984 -0.0146 -0.0078
                                         0.0056  0.0114  0.0082  0.0025
               ( 61.54%)  -0.7844* H 13 s( 99.90%)p 0.00(  0.10%)
                                        -0.9995  0.0035  0.0100  0.0268 -0.0139
  39. (0.01708) BD*( 1) C  4- C  5
               ( 49.65%)   0.7046* C  4 s( 27.64%)p 2.62( 72.32%)d 0.00(  0.03%)
                                         0.0000 -0.5257 -0.0074 -0.6930 -0.0314
                                        -0.0338 -0.0015  0.4902 -0.0236 -0.0010
                                         0.0157  0.0008 -0.0095 -0.0029
               ( 50.35%)  -0.7096* C  5 s( 30.75%)p 2.25( 69.21%)d 0.00(  0.03%)
                                         0.0000 -0.5545  0.0026  0.6844 -0.0110
                                         0.0373 -0.0042 -0.4713 -0.0099 -0.0012
                                         0.0148  0.0003 -0.0109  0.0003
  40. (0.03803) BD*( 1) C  4- C  6
               ( 49.79%)   0.7056* C  4 s( 24.72%)p 3.04( 75.23%)d 0.00(  0.05%)
                                         0.0000 -0.4972  0.0086  0.4737 -0.0176
                                         0.7019  0.0165  0.1824 -0.0374 -0.0155
                                        -0.0074 -0.0090 -0.0009  0.0085
               ( 50.21%)  -0.7086* C  6 s( 25.70%)p 2.89( 74.26%)d 0.00(  0.04%)
                                         0.0000 -0.5068  0.0095 -0.6685 -0.0034
                                        -0.4645  0.0352 -0.2796 -0.0220 -0.0168
                                        -0.0059 -0.0053  0.0002  0.0080
  41. (0.02511) BD*( 1) C  4- H 14
               ( 38.06%)   0.6169* C  4 s( 23.45%)p 3.26( 76.52%)d 0.00(  0.03%)
                                         0.0000 -0.4842 -0.0066 -0.2310  0.0009
                                         0.0327 -0.0008 -0.8430  0.0106  0.0003
                                        -0.0066  0.0012 -0.0019 -0.0146
               ( 61.94%)  -0.7870* H 14 s( 99.88%)p 0.00(  0.12%)
                                        -0.9994  0.0055  0.0086 -0.0017  0.0336
  42. (0.01030) BD*( 1) C  5- H 15
               ( 39.24%)   0.6264* C  5 s( 22.97%)p 3.35( 76.99%)d 0.00(  0.04%)
                                         0.0000 -0.4793  0.0036  0.2013 -0.0206
                                        -0.0764 -0.0036  0.8503  0.0074  0.0007
                                        -0.0082  0.0029 -0.0012 -0.0171
               ( 60.76%)  -0.7795* H 15 s( 99.90%)p 0.00(  0.10%)
                                        -0.9995  0.0019 -0.0046  0.0037 -0.0310
  43. (0.00909) BD*( 1) C  5- H 16
               ( 38.21%)   0.6182* C  5 s( 23.25%)p 3.30( 76.71%)d 0.00(  0.04%)
                                         0.0000 -0.4822 -0.0023 -0.4924 -0.0093
                                         0.7185 -0.0069 -0.0908  0.0057  0.0151
                                        -0.0023  0.0031  0.0068  0.0093
               ( 61.79%)  -0.7861* H 16 s( 99.90%)p 0.00(  0.10%)
                                        -0.9995  0.0026  0.0171 -0.0255  0.0035
  44. (0.00788) BD*( 1) C  5- H 17
               ( 38.44%)   0.6200* C  5 s( 22.96%)p 3.35( 77.00%)d 0.00(  0.04%)
                                         0.0000 -0.4792 -0.0047 -0.4980 -0.0079
                                        -0.6899  0.0073 -0.2143  0.0088 -0.0151
                                        -0.0048 -0.0070  0.0061  0.0079
               ( 61.56%)  -0.7846* H 17 s( 99.91%)p 0.00(  0.09%)
                                        -0.9996  0.0011  0.0173  0.0234  0.0070
  45. (0.02581) BD*( 1) C  6- N  7
               ( 60.12%)   0.7753* C  6 s( 24.88%)p 3.02( 75.02%)d 0.00(  0.10%)
                                         0.0000  0.4970  0.0423  0.2838  0.0046
                                        -0.7162 -0.0439 -0.3934  0.0033 -0.0146
                                        -0.0093  0.0193 -0.0167 -0.0070
               ( 39.88%)  -0.6315* N  7 s( 36.75%)p 1.72( 63.19%)d 0.00(  0.06%)
                                         0.0000  0.6062 -0.0006 -0.2559  0.0012
                                         0.6660  0.0014  0.3505 -0.0041 -0.0125
                                        -0.0104  0.0067 -0.0107 -0.0136
  46. (0.02525) BD*( 1) C  6- H 18
               ( 38.61%)   0.6214* C  6 s( 22.16%)p 3.51( 77.81%)d 0.00(  0.04%)
                                         0.0000 -0.4706  0.0066  0.4784 -0.0175
                                         0.2462  0.0176 -0.6985  0.0102 -0.0046
                                         0.0142  0.0059 -0.0046 -0.0092
               ( 61.39%)  -0.7835* H 18 s( 99.88%)p 0.00(  0.12%)
                                        -0.9994  0.0057 -0.0178 -0.0083  0.0289
  47. (0.01141) BD*( 1) N  7- H 19
               ( 31.82%)   0.5641* N  7 s( 23.24%)p 3.30( 76.68%)d 0.00(  0.08%)
                                         0.0000 -0.4820 -0.0051 -0.4158  0.0227
                                        -0.1216 -0.0153  0.7602 -0.0225 -0.0065
                                         0.0090  0.0108  0.0050 -0.0232
               ( 68.18%)  -0.8257* H 19 s( 99.82%)p 0.00(  0.18%)
                                        -0.9991  0.0042  0.0236  0.0058 -0.0351
  48. (0.00798) BD*( 1) N  7- H 20
               ( 31.64%)   0.5625* N  7 s( 22.82%)p 3.38( 77.10%)d 0.00(  0.08%)
                                         0.0000 -0.4777 -0.0055  0.6231 -0.0054
                                         0.6031 -0.0320  0.1342 -0.0038 -0.0187
                                        -0.0096 -0.0102 -0.0141  0.0078
               ( 68.36%)  -0.8268* H 20 s( 99.82%)p 0.00(  0.18%)
                                        -0.9991  0.0029 -0.0290 -0.0309 -0.0024
  49. (0.00356) RY ( 1) C  1            s(  2.14%)p42.09( 89.94%)d 3.71(  7.93%)
                                         0.0000  0.0076  0.1460  0.0027  0.1787
                                        -0.0127 -0.7433  0.0090  0.5611 -0.2217
                                         0.1633 -0.0417 -0.0096 -0.0399
  50. (0.00314) RY ( 2) C  1            s(  1.30%)p69.34( 90.20%)d 6.53(  8.50%)
                                         0.0000  0.0046  0.1140  0.0016  0.0993
                                         0.0086  0.5941  0.0095  0.7342  0.1812
                                         0.2166  0.0472 -0.0339 -0.0434
  51. (0.00061) RY ( 3) C  1            s( 35.74%)p 1.79( 64.07%)d 0.01(  0.18%)
                                         0.0000  0.0143  0.5977 -0.0122  0.7479
                                        -0.0003  0.0834  0.0029 -0.2725  0.0318
                                         0.0133  0.0073 -0.0020  0.0237
  52. (0.00011) RY ( 4) C  1            s( 49.03%)p 0.56( 27.61%)d 0.48( 23.36%)
                                         0.0000 -0.0109  0.7002  0.0067 -0.5122
                                         0.0007 -0.0321 -0.0071  0.1121  0.0817
                                        -0.4679 -0.0187  0.0306  0.0819
  53. (0.00006) RY ( 5) C  1            s(  5.75%)p 1.86( 10.68%)d14.54( 83.57%)
  54. (0.00001) RY ( 6) C  1            s(  0.11%)p53.71(  5.69%)d99.99( 94.20%)
  55. (0.00001) RY ( 7) C  1            s(  5.09%)p 1.45(  7.40%)d17.18( 87.51%)
  56. (0.00000) RY ( 8) C  1            s(  0.03%)p84.13(  2.57%)d99.99( 97.40%)
  57. (0.00000) RY ( 9) C  1            s(  0.85%)p 2.27(  1.94%)d99.99( 97.20%)
  58. (0.00447) RY ( 1) C  2            s( 27.48%)p 2.04( 55.93%)d 0.60( 16.59%)
                                         0.0000  0.0151  0.5240  0.0274  0.7435
                                        -0.0035  0.0147 -0.0025 -0.0743 -0.0110
                                         0.2456  0.0161  0.3050 -0.1105
  59. (0.00296) RY ( 2) C  2            s(  0.83%)p99.99( 91.91%)d 8.72(  7.26%)
                                         0.0000 -0.0319  0.0855  0.0036 -0.1574
                                         0.0078 -0.2918 -0.0180 -0.8993  0.0519
                                         0.1242  0.0147 -0.1348 -0.1899
  60. (0.00121) RY ( 3) C  2            s( 11.10%)p 7.01( 77.87%)d 0.99( 11.02%)
                                         0.0000 -0.0210  0.3326  0.0045 -0.3321
                                        -0.0108  0.8039 -0.0058 -0.1485 -0.1737
                                         0.1989 -0.1985 -0.0043 -0.0331
  61. (0.00102) RY ( 4) C  2            s( 38.89%)p 1.24( 48.04%)d 0.34( 13.07%)
                                         0.0000 -0.0083  0.6236  0.0093 -0.5047
                                         0.0025 -0.4123  0.0029  0.2359  0.0008
                                         0.1636  0.1675  0.1730  0.2143
  62. (0.00049) RY ( 5) C  2            s(  6.37%)p 0.16(  1.04%)d14.54( 92.59%)
                                         0.0000  0.0067  0.2523  0.0070  0.0470
                                         0.0096 -0.0817  0.0051  0.0362 -0.6906
                                        -0.5210  0.1242 -0.2595 -0.3080
  63. (0.00045) RY ( 6) C  2            s( 10.90%)p 0.20(  2.19%)d 7.98( 86.91%)
                                         0.0000  0.0040  0.3301  0.0092 -0.0220
                                        -0.0148  0.1225  0.0046  0.0783  0.6979
                                        -0.4615  0.0164 -0.2292 -0.3408
  64. (0.00022) RY ( 7) C  2            s(  0.08%)p47.32(  3.68%)d99.99( 96.25%)
                                         0.0000  0.0082  0.0266 -0.0100  0.1183
                                        -0.0134  0.0967 -0.0104  0.1141  0.0277
                                         0.4298  0.5678 -0.6734  0.0343
  65. (0.00011) RY ( 8) C  2            s(  2.42%)p 3.16(  7.66%)d37.15( 89.92%)
                                         0.0000  0.0102  0.1552 -0.0050  0.1111
                                         0.0171 -0.2223 -0.0009  0.1205 -0.0243
                                         0.1505 -0.7602 -0.5241  0.1525
  66. (0.00007) RY ( 9) C  2            s(  2.06%)p 5.68( 11.70%)d41.86( 86.24%)
  67. (0.00511) RY ( 1) C  3            s(  1.00%)p88.64( 88.77%)d10.21( 10.23%)
                                         0.0000  0.0169  0.0986 -0.0137 -0.6446
                                        -0.0182 -0.4947  0.0199  0.4760  0.0764
                                         0.0162 -0.1179 -0.2390 -0.1586
  68. (0.00289) RY ( 2) C  3            s(  3.38%)p22.92( 77.37%)d 5.70( 19.25%)
                                         0.0000  0.0309  0.1811  0.0018  0.4373
                                        -0.0065 -0.6908 -0.0018 -0.3243 -0.0462
                                        -0.2364  0.1250 -0.3087 -0.1537
  69. (0.00144) RY ( 3) C  3            s( 37.46%)p 1.59( 59.47%)d 0.08(  3.07%)
                                         0.0000 -0.0016  0.6120  0.0166 -0.4783
                                        -0.0041  0.1196  0.0092 -0.5927 -0.0344
                                        -0.0594  0.0282  0.1378 -0.0788
  70. (0.00079) RY ( 4) C  3            s( 53.37%)p 0.77( 41.08%)d 0.10(  5.55%)
[...]
 18 H                -1.3      -0.4      -0.1       0.0      -0.0       0.0

                     90        91        92        93        94        95   
                   0.00000   0.00000   0.00000   0.00000   0.00000   0.00000
                   0.00001   0.00001   0.00000   0.00523   0.00410   0.00247
                  --------  --------  --------  --------  --------  --------
  0 C                -0.0       0.0       0.0       1.1      -0.5      -2.3
  1 C                 0.0      -0.0      -0.0     -48.4      -7.1      -2.4
  2 C                -0.1       0.0      -0.2       4.1      -0.1       4.0
  3 C                -2.3       0.1      -0.9      -6.7      -8.0     -40.0
  4 C               117.2     111.2     112.4       0.6      -0.6      -1.1
  5 C                -0.1      -0.1      -0.0     170.8     159.7     156.5
  6 N                 0.0       0.0      -0.0      -8.6     -13.5     -12.8
  7 H                 0.0      -0.0      -0.0      -0.2       0.0      -0.0
  8 H                -0.0      -0.0      -0.0      -0.4      -0.0       0.1
  9 H                -0.0      -0.0       0.0       0.2      -0.0      -0.3
 10 H                -0.1      -0.0      -0.0      -0.4       0.3       0.2
 11 H                -0.0       0.0      -0.0      -0.1       0.1      -0.1
 12 H                 0.0       0.0       0.0      -0.2      -0.0      -0.1
 13 H                 0.0      -0.0       0.0      -0.7       0.4       1.0
 14 H                -6.0      -1.8      -2.1       0.0      -0.0       0.0
 15 H                -1.9      -4.4      -4.8      -0.1      -0.0       0.0
 16 H                -6.7      -5.0      -4.3      -0.0      -0.0       0.0
 17 H                 0.0      -0.0      -0.0     -10.5     -29.2      -1.6
 18 H                -0.0       0.0      -0.0      -0.5      -0.4      -0.3
 19 H                -0.0      -0.0      -0.0      -0.1      -0.9      -0.6

                     96        97        98        99       100       101   
                   0.00000   0.00000   0.00000   0.00000   0.00000   0.00000
                   0.00215   0.00101   0.00056   0.00033   0.00015   0.00006
                  --------  --------  --------  --------  --------  --------
  0 C                 0.3       0.5      -0.0      -0.0       0.6       0.3
  1 C               -47.6     -30.5      -3.1      -6.8      -6.7      -1.4
  2 C                 0.1       1.7       1.6       2.8       2.1       0.2
  3 C               -37.8      -2.3     -17.6     -16.5     -13.2      -2.7
  4 C                -1.9      -0.2      -0.2      -0.7       0.5       0.7
  5 C               243.5     137.3     123.9     125.2     122.6     113.2
  6 N               -52.3      -4.7      -0.9      -0.8      -2.3       0.1
  7 H                -0.0      -0.1      -0.0      -0.0      -0.0      -0.0
  8 H                -0.0      -0.1      -0.0       0.0      -0.0      -0.0
 10 H                 1.3       0.5      -0.1      -0.0      -0.3       0.1
 11 H                -0.2      -0.0       0.1       0.2       0.0      -0.0
 12 H                -0.1      -0.1      -0.1      -0.1      -0.1       0.0
 13 H                -0.0       0.1       0.1       0.3      -0.1       0.0
 15 H                 0.2      -0.0       0.0       0.0      -0.0      -0.0
 16 H                -0.2      -0.0      -0.0      -0.0      -0.1       0.0
 17 H                -1.5      -1.0      -2.9      -3.4      -2.8     -10.3
 18 H                -1.8      -0.4      -0.2      -0.1      -0.1       0.0
 19 H                -1.8      -0.5      -0.3       0.1      -0.1      -0.0

                    102       103       104       105       106       107   
                   0.00000   0.00000   0.00000   0.00000   0.00000   0.00000
                   0.00316   0.00162   0.00029   0.00011   0.00005   0.00003
                  --------  --------  --------  --------  --------  --------
  0 C                -0.1      -0.0      -0.2      -0.1      -0.0      -0.0
  1 C                -0.2       0.6       1.4       0.5       0.2      -0.1
  2 C                -0.0      -0.3      -1.6      -0.6      -0.0       0.0
  3 C                 0.1       1.8       2.3      -0.5       0.4       0.0
  4 C                -0.4      -1.4      -0.4      -0.1       0.1      -0.1
  5 C                -6.2     -16.6     -48.3     -17.3      -2.8      -2.4
  6 N               110.0     129.1     150.3     133.8     110.1     105.7
 10 H                -0.0      -0.1      -0.2      -0.2      -0.0      -0.0
 11 H                -0.0      -0.0      -0.1      -0.1      -0.0      -0.0
 12 H                -0.0       0.0      -0.1      -0.1       0.0      -0.0
 15 H                -0.3      -0.3      -0.0      -0.0      -0.0      -0.0
 17 H                -0.1      -0.0       0.3      -0.2      -0.3      -0.1
 18 H                -1.2      -6.2      -2.2      -8.8      -3.2      -0.6
 19 H                -1.4      -6.5      -1.1      -6.0      -4.3      -2.2

                    108       109       110       111       112       113   
                   0.00000   0.00000   0.00000   0.00000   0.00000   0.00000
                   0.00001   0.00000   0.00000   0.00181   0.00017   0.00013
                  --------  --------  --------  --------  --------  --------
  0 C                -0.0       0.0      -0.0     -33.3      -2.9      -3.2
  1 C                 0.0      -0.0       0.0       0.2      -0.2      -0.1
  2 C                 0.0      -0.0      -0.0      -0.1      -0.0      -0.0
  3 C                 0.0      -0.3      -0.0      -0.1      -0.0       0.0
  5 C                -0.6       0.5      -0.8      -0.2      -0.0      -0.1
  6 N               106.2     106.6     107.0      -0.0      -0.0      -0.0
  7 H                -0.0      -0.0      -0.0     134.4     104.0     104.2
  8 H                -0.0      -0.0      -0.0      -0.3      -0.4      -0.4
  9 H                -0.0      -0.0      -0.0      -0.2      -0.3      -0.4
 10 H                -0.0      -0.0      -0.0      -0.3      -0.0      -0.0
 18 H                -2.7      -4.9      -1.9      -0.0      -0.0      -0.0
 19 H                -2.8      -2.0      -4.2      -0.0      -0.0      -0.0

                    114       115       116       117       118       119   
                   0.00000   0.00000   0.00000   0.00000   0.00000   0.00000
                   0.00003   0.00215   0.00016   0.00011   0.00003   0.00281
                  --------  --------  --------  --------  --------  --------
  0 C                -8.0     -34.9      -2.9      -2.6      -8.1     -33.3
  1 C                -0.2       1.6      -0.1      -0.4      -0.1       0.3
  2 C                 0.0      -0.7      -0.0      -0.0      -0.0      -0.2
  5 C                -0.1      -0.6      -0.0      -0.0      -0.0      -0.2
  7 H               108.5      -0.3      -0.3      -0.4      -0.1      -0.3
  8 H                -0.1     138.3     103.9     104.0     108.6      -0.4
  9 H                -0.1      -0.4      -0.4      -0.4      -0.1     135.0
 10 H                -0.0       0.0      -0.1      -0.0      -0.0      -0.3
 11 H                -0.0      -1.3      -0.0      -0.0      -0.1      -0.0
 17 H                -0.0      -1.6      -0.0      -0.0      -0.1      -0.0
 19 H                -0.0      -0.0      -0.0      -0.0      -0.0      -0.5

                    120       121       122       123       124       125   
                   0.00000   0.00000   0.00000   0.00000   0.00000   0.00000
                   0.00017   0.00013   0.00004   0.00419   0.00011   0.00008
                  --------  --------  --------  --------  --------  --------
  0 C                -2.9      -2.9      -8.0      -0.1      -0.2      -0.5
  1 C                -0.2      -0.1      -0.2     -35.9      -2.7      -4.7
  2 C                -0.0      -0.1      -0.0       0.9      -0.1      -0.2
  3 C                -0.0      -0.0      -0.0       0.0      -0.0      -0.1
  5 C                -0.0      -0.0      -0.0       1.4      -0.2      -0.1
  6 N                -0.0      -0.0      -0.0      -0.3      -0.1      -0.0
  7 H                -0.3      -0.4      -0.1      -0.3      -0.1      -0.0
  8 H                -0.4      -0.4      -0.1      -0.0      -0.1      -0.0
  9 H               104.0     104.0     108.5      -0.3      -0.0      -0.0
 10 H                -0.0      -0.0      -0.0     139.8     103.8     106.1
 12 H                -0.0      -0.0      -0.0      -0.6      -0.0      -0.0
 14 H                -0.0      -0.0      -0.0      -3.5      -0.0      -0.1
 18 H                -0.0      -0.0      -0.0      -1.1      -0.0      -0.0

                    126       127       128       129       130       131   
                   0.00000   0.00000   0.00000   0.00000   0.00000   0.00000
                   0.00003   0.00258   0.00012   0.00012   0.00002   0.00233
                  --------  --------  --------  --------  --------  --------
  0 C                 0.3      -1.2      -0.0      -0.0      -0.0       0.1
  1 C                -7.3       1.7      -0.1      -0.1      -0.3       0.6
  2 C                -0.2     -38.0      -3.8      -3.0      -7.3     -38.0
  3 C                -0.2       1.1      -0.1      -0.2      -0.3       1.6
  4 C                 0.0      -0.1      -0.0      -0.0      -0.0      -1.4
  5 C                -0.2      -0.1      -0.1      -0.0      -0.0      -0.6
  6 N                -0.0      -0.0      -0.1      -0.0      -0.0      -0.0
  8 H                 0.0      -1.3      -0.0      -0.0      -0.0      -0.0
 10 H               107.8       0.0      -0.0      -0.0      -0.0      -0.6
 11 H                -0.0     139.6     105.2     104.1     107.9      -0.6
 12 H                 0.0      -0.6      -0.7      -0.5       0.0     139.9
 13 H                -0.0      -0.9      -0.1      -0.0      -0.0       0.0
 14 H                -0.0      -0.0      -0.0      -0.0      -0.0      -0.2
 16 H                -0.0      -0.0      -0.0      -0.0      -0.0      -0.6
 17 H                -0.0      -0.2      -0.0      -0.0      -0.0      -0.0

                    132       133       134       135       136       137   
                   0.00000   0.00000   0.00000   0.00000   0.00000   0.00000
                   0.00012   0.00008   0.00003   0.00318   0.00007   0.00007
                  --------  --------  --------  --------  --------  --------
  1 C                 0.1      -0.1      -0.5      -0.8      -0.1      -0.1
  2 C                -4.9      -2.8      -7.0       1.2      -0.1      -0.2
  3 C                 0.1      -0.2      -0.6     -36.6      -4.8      -4.0
  4 C                -0.0      -0.0       0.0      -0.4      -0.5      -0.4
  5 C                -0.1      -0.0      -0.0       1.2       0.1      -0.1
  6 N                -0.1      -0.0      -0.0      -0.0       0.0      -0.1
 11 H                -0.8      -0.4       0.0      -0.9      -0.1      -0.0
 12 H               106.0     103.6     108.2       0.0      -0.0      -0.0
 13 H                -0.0      -0.0      -0.0     138.2     105.6     105.1
 15 H                -0.0      -0.0      -0.0      -0.3      -0.0      -0.1
 16 H                -0.0      -0.0      -0.0      -0.4      -0.1      -0.0
 17 H                -0.0      -0.0      -0.0      -1.1      -0.0      -0.1

                    138       139       140       141       142       143   
                   0.00000   0.00000   0.00000   0.00000   0.00000   0.00000
                   0.00004   0.00170   0.00018   0.00012   0.00003   0.00277
                  --------  --------  --------  --------  --------  --------
  0 C                -0.0      -0.1      -0.0      -0.0      -0.0      -0.0
  1 C                 0.1      -0.8      -0.0      -0.0      -0.0      -0.0
  2 C                -0.9      -0.5      -0.0      -0.1      -0.0      -0.3
  3 C                -6.2       1.7      -0.2      -0.3      -0.1      -0.3
  4 C                 0.3     -37.8      -3.0      -2.9      -7.9     -33.5
  5 C                -0.9      -0.3      -0.0      -0.1      -0.0       0.2
  6 N                -0.0      -0.0      -0.1      -0.0      -0.0      -0.6
 10 H                -0.0      -3.6       0.0      -0.0      -0.1      -0.0
 12 H                -0.0      -0.2      -0.0      -0.0      -0.0      -0.0
 13 H               107.8       0.1      -0.1      -0.0      -0.0      -0.3
 14 H                -0.0     143.2     104.0     104.3     108.6      -0.3
 15 H                -0.0      -0.3      -0.4      -0.4      -0.1     136.1
 16 H                -0.0      -0.4      -0.3      -0.4      -0.1      -0.3
 18 H                -0.0      -0.9      -0.0      -0.0      -0.1      -0.7

                    144       145       146       147       148       149   
                   0.00000   0.00000   0.00000   0.00000   0.00000   0.00000
                   0.00015   0.00011   0.00004   0.00164   0.00017   0.00011
                  --------  --------  --------  --------  --------  --------
  3 C                -0.2      -0.1      -0.1      -0.0      -0.2      -0.1
  4 C                -3.0      -3.0      -8.1     -33.4      -2.9      -3.3
  5 C                -0.0      -0.0      -0.0      -0.3      -0.0      -0.0
 12 H                -0.0      -0.0      -0.0      -0.5      -0.0      -0.0
 13 H                -0.0      -0.1      -0.0      -0.4      -0.0      -0.0
 14 H                -0.5      -0.4      -0.1      -0.3      -0.4      -0.4
 15 H               104.1     104.2     108.5      -0.2      -0.3      -0.5
 16 H                -0.3      -0.4      -0.1     135.1     104.0     104.4

                    150       151       152       153       154       155   
                   0.00000   0.00000   0.00000   0.00000   0.00000   0.00000
                   0.00002   0.00307   0.00012   0.00006   0.00004   0.00276
                  --------  --------  --------  --------  --------  --------
  0 C                -0.0      -1.1      -0.0      -0.0       0.0      -0.0
  1 C                -0.0       1.6      -0.2      -0.3       0.0      -0.0
  2 C                -0.0      -0.5      -0.0      -0.2      -0.1      -0.0
  3 C                -0.2       1.5      -0.3      -0.3      -0.0       0.3
  4 C                -7.9      -0.2      -0.1      -0.0       0.0      -1.5
  5 C                -0.1     -38.3      -2.8      -3.6      -8.3      -3.2
  6 N                -0.0       0.4      -0.3      -1.1      -0.2      -9.4
  8 H                -0.0      -1.6      -0.0      -0.0      -0.0      -0.0
 10 H                -0.0       0.0      -0.0      -0.0      -0.0      -1.1
 11 H                -0.0      -0.2      -0.0      -0.0       0.0      -0.0
 13 H                -0.0      -1.2      -0.1      -0.0       0.0      -0.0
 14 H                -0.1       0.0      -0.0      -0.0      -0.0      -0.8
 15 H                -0.1      -0.0      -0.0      -0.0      -0.0      -0.7
 16 H               108.5      -0.0      -0.0      -0.0      -0.0      -0.0
 17 H                -0.0     139.9     104.1     105.9     108.6      -0.0
 18 H                -0.0       0.0      -0.1      -0.0      -0.0     118.5
 19 H                -0.0      -0.5      -0.1      -0.1       0.0      -1.9

                    156       157       158       159       160       161   
                   0.00000   0.00000   0.00000   0.00000   0.00000   0.00000
                   0.00077   0.00038   0.00002   0.00274   0.00080   0.00036
                  --------  --------  --------  --------  --------  --------
  2 C                -0.0      -0.0      -0.0      -0.1      -0.1       0.0
  3 C                -0.0      -0.1      -0.1      -0.1       0.0      -0.1
  4 C                -0.2      -0.1      -0.0      -0.0      -0.0       0.0
  5 C                -0.1      -0.5      -0.1      -3.3      -0.6      -0.2
  6 N                -3.5      -2.7      -5.3      -7.8      -3.5      -3.1
  9 H                -0.0      -0.0      -0.0      -0.5      -0.0      -0.0
 17 H                -0.0      -0.1      -0.0      -0.4      -0.1      -0.1
 18 H               104.5     104.0     106.0      -1.9      -0.4      -0.5
 19 H                -0.4      -0.4      -0.4     114.1     104.7     104.2

                    162   
                   0.00000
                   0.00002
                  --------
  5 C                -0.1
  6 N                -5.1
 18 H                -0.2
 19 H               105.6

Storing NBOs: 1692.nbo
                                    *** NBOs were stored ***

                                *** returned from GENNBO program ***

-------
TIMINGS
-------

Total SCF time: 0 days 0 hours 0 min 7 sec 

Total time                  ....       7.298 sec
Sum of individual times     ....       7.929 sec  (108.6%)

Fock matrix formation       ....       4.748 sec  ( 65.1%)
  Coulomb formation         ....       2.407 sec  ( 50.7% of F)
  Split-RI-J                ....       2.399 sec  ( 50.5% of F)
  XC integration            ....       2.335 sec  ( 49.2% of F)
    Basis function eval.    ....       0.757 sec  ( 32.4% of XC)
    Density eval.           ....       0.428 sec  ( 18.3% of XC)
    XC-Functional eval.     ....       0.114 sec  (  4.9% of XC)
    XC-Potential eval.      ....       0.917 sec  ( 39.3% of XC)
Diagonalization             ....       0.035 sec  (  0.5%)
Density matrix formation    ....       0.003 sec  (  0.0%)
Population analysis         ....       1.755 sec  ( 24.0%)
Initial guess               ....       0.486 sec  (  6.7%)
Orbital Transformation      ....       0.000 sec  (  0.0%)
Orbital Orthonormalization  ....       0.000 sec  (  0.0%)
DIIS solution               ....       0.009 sec  (  0.1%)
SOSCF solution              ....       0.015 sec  (  0.2%)
Grid generation             ....       0.878 sec  ( 12.0%)
           ************************************************************
           *              Shut down parallel processing               *
           ************************************************************

-------------------------   --------------------
FINAL SINGLE POINT ENERGY      -290.580708634850
-------------------------   --------------------


                            ***************************************
                            *     ORCA property calculations      *
                            ***************************************

                                    ---------------------
                                    Active property flags
                                    ---------------------
   (+) Dipole Moment


------------------------------------------------------------------------------
                       ORCA ELECTRIC PROPERTIES CALCULATION
------------------------------------------------------------------------------

Dipole Moment Calculation                       ... on
Quadrupole Moment Calculation                   ... off
Polarizability Calculation                      ... off
GBWName                                         ... 1692.gbw
Electron density file                           ... 1692.scfp.tmp

-------------
DIPOLE MOMENT
-------------
                                X             Y             Z
Electronic contribution:      0.49513      -1.50073       0.93697
Nuclear contribution   :     -0.77545       1.50467      -1.27954
                        -----------------------------------------
Total Dipole Moment    :     -0.28032       0.00395      -0.34257
                        -----------------------------------------
Magnitude (a.u.)       :      0.44266
Magnitude (Debye)      :      1.12515


Timings for individual modules:

Sum of individual times         ...        8.591 sec (=   0.143 min)
GTO integral calculation        ...        0.473 sec (=   0.008 min)   5.5 %
SCF iterations                  ...        8.118 sec (=   0.135 min)  94.5 %
                             ****ORCA TERMINATED NORMALLY****
TOTAL RUN TIME: 0 days 0 hours 0 minutes 8 seconds 992 msec
