
                                 *****************
                                 * O   R   C   A *
                                 *****************

           --- An Ab Initio, DFT and Semiempirical electronic structure package ---

                  #######################################################
                  #                        -***-                        #
                  #  Department of molecular theory and spectroscopy    #
                  #              Directorship: Frank Neese              #
                  # Max Planck Institute for Chemical Energy Conversion #
                  #                  D-45470 Muelheim/Ruhr              #
                  #                       Germany                       #
                  #                                                     #
                  #                  All rights reserved                #
                  #                        -***-                        #
                  #######################################################


                         Program Version 3.0.3 - RELEASE   -


 With contributions from (in alphabetic order):
   Ute Becker             : Parallelization
   Dmytro Bykov           : SCF Hessian
   Dmitry Ganyushin       : Spin-Orbit,Spin-Spin,Magnetic field MRCI
   Andreas Hansen         : Spin unrestricted coupled pair/coupled cluster methods
   Dimitrios Liakos       : Extrapolation schemes; parallel MDCI
   Robert Izsak           : Overlap fitted RIJCOSX, COSX-SCS-MP3
   Christian Kollmar      : KDIIS, OOCD, Brueckner-CCSD(T), CCSD density
   Simone Kossmann        : Meta GGA functionals, TD-DFT gradient, OOMP2, MP2 Hessian
   Taras Petrenko         : DFT Hessian,TD-DFT gradient, ASA and ECA modules, normal mode analysis, Resonance Raman, ABS, FL, XAS/XES, NRVS
   Christoph Reimann      : Effective Core Potentials
   Michael Roemelt        : Restricted open shell CIS
   Christoph Riplinger    : Improved optimizer, TS searches, QM/MM, DLPNO-CCSD
   Barbara Sandhoefer     : DKH picture change effects
   Igor Schapiro          : Molecular dynamics
   Kantharuban Sivalingam : CASSCF convergence, NEVPT2
   Boris Wezisla          : Elementary symmetry handling
   Frank Wennmohs         : Technical directorship


 We gratefully acknowledge several colleagues who have allowed us to
 interface, adapt or use parts of their codes:
   Stefan Grimme, W. Hujo, H. Kruse, T. Risthaus : VdW corrections, initial TS optimization,
                                                   DFT functionals, gCP
   Ed Valeev                                     : LibInt (2-el integral package), F12 methods
   Garnet Chan, S. Sharma, R. Olivares           : DMRG
   Ulf Ekstrom                                   : XCFun DFT Library
   Mihaly Kallay                                 : mrcc  (arbitrary order and MRCC methods)
   Andreas Klamt, Michael Diedenhofen            : otool_cosmo (COSMO solvation model)
   Frank Weinhold                                : gennbo (NPA and NBO analysis)
   Christopher J. Cramer and Donald G. Truhlar   : smd solvation model


 Your calculation uses the libint2 library for the computation of 2-el integrals
 For citations please refer to: http://libint.valeyev.net

 This ORCA versions uses:
   CBLAS   interface :  Fast vector & matrix operations
   LAPACKE interface :  Fast linear algebra routines
   SCALAPACK package :  Parallel linear algebra routines


Your calculation utilizes the basis: Ahlrichs-VDZ
Cite in your paper:
H - Kr: A. Schaefer, H. Horn and R. Ahlrichs, J. Chem. Phys. 97, 2571 (1992).

Your calculation utilizes the basis: Ahlrichs SVPalls1+f
Cite in your paper:
Rb - Xe: A. Schaefer, C. Huber and R. Ahlrichs, J. Chem. Phys. 100, 5829 (1994).

================================================================================
                                        WARNINGS
                       Please study these warnings very carefully!
================================================================================
Now building the actual basis set


INFO   : the flag for use of LIBINT has been found!

================================================================================
                                       INPUT FILE
================================================================================
NAME = 1964.inp
|  1> ! RI PBE def2-SVP def2-SVP/J NBO PAL2
|  2> % maxcore 2000
|  3> % output
|  4>     # printlevel mini
|  5>     print[ P_Basis ] 0
|  6>     print[ P_SCFInfo ] 1
|  7>     print[ P_SCFIterInfo ] 1
|  8>     print[ P_OrbEn ] 0
|  9>     print[ P_Cartesian ] 0
| 10> end
| 11> *xyz 0 1
| 12>  C        1.1778700000     0.1140520000    -0.5360870000 
| 13>  C        2.6114320000    -0.3923500000    -0.5441110000 
| 14>  C        2.8850340000    -1.3609660000     0.5707930000 
| 15>  C        2.6497800000    -2.8173150000     0.4332800000 
| 16>  N        3.9950940000    -2.2789490000     0.4270480000 
| 17>  C        4.7835760000    -2.5253230000     1.6184440000 
| 18>  C        5.8900740000    -1.5012160000     1.7584250000 
| 19>  H        1.0023630000     0.8199080000    -1.3507650000 
| 20>  H        0.9422590000     0.6260930000     0.4011030000 
| 21>  H        0.4686800000    -0.7103740000    -0.6479990000 
| 22>  H        3.3066360000     0.4509740000    -0.4630780000 
| 23>  H        2.8379070000    -0.8879580000    -1.4925750000 
| 24>  H        2.7273140000    -0.9638620000     1.5758730000 
| 25>  H        2.2985750000    -3.2240320000    -0.5104250000 
| 26>  H        2.3280110000    -3.3634860000     1.3174820000 
| 27>  H        5.2100800000    -3.5301310000     1.5328670000 
| 28>  H        4.1517520000    -2.5220620000     2.5241950000 
| 29>  H        6.5353200000    -1.5116920000     0.8778720000 
| 30>  H        6.5014870000    -1.7092240000     2.6394380000 
| 31>  H        5.4793680000    -0.4936750000     1.8636100000 
| 32> *
| 33> 
| 34>                          ****END OF INPUT****
================================================================================

                       ****************************
                       * Single Point Calculation *
                       ****************************

--------------------------------
INTERNAL COORDINATES (ANGSTROEM)
--------------------------------
 C      0   0   0   0.000000     0.000     0.000
 C      1   0   0   1.520397     0.000     0.000
 C      2   1   0   1.502027   112.496     0.000
 C      3   2   1   1.481623   122.416    88.021
 N      3   2   1   1.447615   118.354   157.847
 C      5   3   2   1.449768   116.309   140.436
 C      6   5   3   1.514176   111.006   272.506
 H      1   2   3   1.092124   111.276   179.709
 H      1   2   3   1.093629   111.322    59.715
 H      1   2   3   1.093231   111.097   299.915
 H      2   1   3   1.095934   109.964   238.290
 H      2   1   3   1.093847   110.531   121.176
 H      3   2   1   1.092132   114.981   300.394
 H      4   3   2   1.085976   120.009     2.122
 H      4   3   2   1.087957   117.709   213.412
 H      6   5   3   1.094928   107.672   151.959
 H      6   5   3   1.104354   111.244    35.213
 H      7   6   5   1.091708   110.540   302.176
 H      7   6   5   1.092372   110.780   181.828
 H      7   6   5   1.093107   110.961    61.935

---------------------------
INTERNAL COORDINATES (A.U.)
---------------------------
 C      0   0   0   0.000000     0.000     0.000
 C      1   0   0   2.873134     0.000     0.000
 C      2   1   0   2.838420   112.496     0.000
 C      3   2   1   2.799862   122.416    88.021
 N      3   2   1   2.735596   118.354   157.847
 C      5   3   2   2.739665   116.309   140.436
 C      6   5   3   2.861377   111.006   272.506
 H      1   2   3   2.063816   111.276   179.709
 H      1   2   3   2.066659   111.322    59.715
 H      1   2   3   2.065906   111.097   299.915
 H      2   1   3   2.071014   109.964   238.290
 H      2   1   3   2.067072   110.531   121.176
 H      3   2   1   2.063831   114.981   300.394
 H      4   3   2   2.052196   120.009     2.122
 H      4   3   2   2.055941   117.709   213.412
 H      6   5   3   2.069115   107.672   151.959
 H      6   5   3   2.086926   111.244    35.213
 H      7   6   5   2.063029   110.540   302.176
 H      7   6   5   2.064284   110.780   181.828
 H      7   6   5   2.065672   110.961    61.935



           ************************************************************
           *        Program running with 2 parallel MPI-processes     *
           *              working on a common directory               *
           ************************************************************
------------------------------------------------------------------------------
                           ORCA GTO INTEGRAL CALCULATION
                           -- RI-GTO INTEGRALS CHOSEN --
------------------------------------------------------------------------------

                         BASIS SET STATISTICS AND STARTUP INFO

Gaussian basis set:
 # of primitive gaussian shells          ...  149
 # of primitive gaussian functions       ...  259
 # of contracted shells                  ...   81
 # of contracted basis functions         ...  163
 Highest angular momentum                ...    2
 Maximum contraction depth               ...    5
Auxiliary gaussian basis set:
 # of primitive gaussian shells          ...  272
 # of primitive gaussian functions       ...  698
 # of contracted shells                  ...  170
 # of contracted aux-basis functions     ...  486
 Highest angular momentum                ...    4
 Maximum contraction depth               ...    7
Ratio of auxiliary to basis functions    ...  2.98
Integral package used                  ... LIBINT
 One Electron integrals                  ... done
 Ordering auxiliary basis shells         ... done
 Integral threshhold             Thresh  ...  1.000e-10
 Primitive cut-off               TCut    ...  1.000e-11
 Pre-screening matrix                    ... done
 Shell pair data                         ... 
 Ordering of the shell pairs             ... done (   0.000 sec) 3120 of 3321 pairs
 Determination of significant pairs      ... done (   0.000 sec)
 Creation of shell pair data             ... done (   0.001 sec)
 Storage of shell pair data              ... done (   0.001 sec)
 Shell pair data done in (   0.002 sec)
 Computing two index integrals           ... done
 Cholesky decomposition of the V-matrix  ... done


Timings:
 Total evaluation time                   ...   0.164 sec (  0.003 min)
 One electron matrix time                ...   0.023 sec (  0.000 min) = 14.3%
 Schwartz matrix evaluation time         ...   0.075 sec (  0.001 min) = 45.7%
 Two index repulsion integral time       ...   0.005 sec (  0.000 min) =  2.8%
 Cholesky decomposition of V             ...   0.004 sec (  0.000 min) =  2.7%
 Three index repulsion integral time     ...   0.000 sec (  0.000 min) =  0.0%

           ************************************************************
           *              Shut down parallel processing               *
           ************************************************************


           ************************************************************
           *        Program running with 2 parallel MPI-processes     *
           *              working on a common directory               *
           ************************************************************
-------------------------------------------------------------------------------
                                 ORCA SCF
-------------------------------------------------------------------------------

------------
SCF SETTINGS
------------
Hamiltonian:
 Density Functional     Method          .... DFT(GTOs)
 Exchange Functional    Exchange        .... PBE
   PBE kappa parameter  XKappa          ....  0.804000
 Correlation Functional Correlation     .... PBE
 LDA part of GGA corr.  LDAOpt          .... PW91-LDA
 Gradients option       PostSCFGGA      .... off
   NL short-range parameter             ....  6.400000
 RI-approximation to the Coulomb term is turned on
   Number of auxiliary basis functions  .... 486


General Settings:
 Integral files         IntName         .... 1964
 Hartree-Fock type      HFTyp           .... RHF
 Total Charge           Charge          ....    0
 Multiplicity           Mult            ....    1
 Number of Electrons    NEL             ....   56
 Basis Dimension        Dim             ....  163
 Nuclear Repulsion      ENuc            ....    316.6687067205 Eh

Convergence Acceleration:
 DIIS                   CNVDIIS         .... on
   Start iteration      DIISMaxIt       ....    12
   Startup error        DIISStart       ....  0.200000
   # of expansion vecs  DIISMaxEq       ....     5
   Bias factor          DIISBfac        ....   1.050
   Max. coefficient     DIISMaxC        ....  10.000
 Newton-Raphson         CNVNR           .... off
 SOSCF                  CNVSOSCF        .... on
   Start iteration      SOSCFMaxIt      ....   150
   Startup grad/error   SOSCFStart      ....  0.003300
 Level Shifting         CNVShift        .... on
   Level shift para.    LevelShift      ....    0.2500
   Turn off err/grad.   ShiftErr        ....    0.0010
 Zerner damping         CNVZerner       .... off
 Static damping         CNVDamp         .... on
   Fraction old density DampFac         ....    0.7000
   Max. Damping (<1)    DampMax         ....    0.9800
   Min. Damping (>=0)   DampMin         ....    0.0000
   Turn off err/grad.   DampErr         ....    0.1000
 Fernandez-Rico         CNVRico         .... off

SCF Procedure:
 Maximum # iterations   MaxIter         ....   125
 SCF integral mode      SCFMode         .... Direct
   Integral package                     .... LIBINT
 Reset frequeny         DirectResetFreq ....    20
 Integral Threshold     Thresh          ....  1.000e-10 Eh
 Primitive CutOff       TCut            ....  1.000e-11 Eh

Convergence Tolerance:
 Convergence Check Mode ConvCheckMode   .... Total+1el-Energy
 Energy Change          TolE            ....  1.000e-06 Eh
 1-El. energy change                    ....  1.000e-03 Eh
 Orbital Gradient       TolG            ....  5.000e-05
 Orbital Rotation angle TolX            ....  5.000e-05
 DIIS Error             TolErr          ....  1.000e-06


Diagonalization of the overlap matrix:
Smallest eigenvalue                        ... 1.492e-03
Time for diagonalization                   ...    0.014 sec
Threshold for overlap eigenvalues          ... 1.000e-08
Number of eigenvalues below threshold      ... 0
Time for construction of square roots      ...    0.003 sec
Total time needed                          ...    0.018 sec

-------------------
DFT GRID GENERATION
-------------------

General Integration Accuracy     IntAcc      ...  4.340
Radial Grid Type                 RadialGrid  ... Gauss-Chebyshev
Angular Grid (max. acc.)         AngularGrid ... Lebedev-110
Angular grid pruning method      GridPruning ... 3 (G Style)
Weight generation scheme         WeightScheme... Becke
Basis function cutoff            BFCut       ...    1.0000e-10
Integration weight cutoff        WCut        ...    1.0000e-14
Grids for H and He will be reduced by one unit

# of grid points (after initial pruning)     ...  21960 (   0.0 sec)
# of grid points (after weights+screening)   ...  20144 (   0.1 sec)
nearest neighbour list constructed           ...    0.0 sec
Grid point re-assignment to atoms done       ...    0.0 sec
Grid point division into batches done        ...    0.0 sec
Reduced shell lists constructed in    0.1 sec

Total number of grid points                  ...    20144
Total number of batches                      ...      325
Average number of points per batch           ...       61
Average number of grid points per atom       ...     1007
Average number of shells per batch           ...    59.26 (73.16%)
Average number of basis functions per batch  ...   115.26 (70.71%)
Average number of large shells per batch     ...    46.04 (77.70%)
Average number of large basis fcns per batch ...    88.54 (76.82%)
Maximum spatial batch extension              ...  18.88, 17.53, 19.78 au
Average spatial batch extension              ...   1.46,  1.41,  1.41 au

Time for grid setup =    0.173 sec

------------------------------
INITIAL GUESS: MODEL POTENTIAL
------------------------------
Loading Hartree-Fock densities                     ... done
Calculating cut-offs                               ... done
Setting up the integral package                    ... done
Initializing the effective Hamiltonian             ... done
Starting the Coulomb interaction                   ... done (   0.1 sec)
Reading the grid                                   ... done
Mapping shells                                     ... done
Starting the XC term evaluation                    ... done (   0.1 sec)
  promolecular density results
     # of electrons  =     55.996604668
     EX              =    -41.088129768
     EC              =     -1.828136505
     EX+EC           =    -42.916266273
Transforming the Hamiltonian                       ... done (   0.0 sec)
Diagonalizing the Hamiltonian                      ... done (   0.0 sec)
Back transforming the eigenvectors                 ... done (   0.0 sec)
Now organizing SCF variables                       ... done
                      ------------------
                      INITIAL GUESS DONE (   0.5 sec)
                      ------------------
--------------
SCF ITERATIONS
--------------
ITER       Energy         Delta-E        Max-DP      RMS-DP      [F,P]     Damp
               ***  Starting incremental Fock matrix formation  ***
  0   -290.3706425561   0.000000000000 0.07323946  0.00255494  0.1603730 0.7000
  1   -290.4669258574  -0.096283301243 0.04136896  0.00189669  0.0769189 0.7000
                               ***Turning on DIIS***
  2   -290.5008150318  -0.033889174423 0.06208002  0.00293230  0.0219012 0.0000
  3   -290.5474889056  -0.046673873833 0.03108805  0.00133009  0.0490330 0.0000
  4   -290.5645787448  -0.017089839200 0.00920790  0.00038482  0.0100991 0.0000
  5   -290.5654910107  -0.000912265861 0.00557278  0.00019495  0.0048112 0.0000
                      *** Initiating the SOSCF procedure ***
                           *** Shutting down DIIS ***
                      *** Re-Reading the Fockian *** 
                      *** Removing any level shift *** 
ITER      Energy       Delta-E        Grad      Rot      Max-DP    RMS-DP
  6   -290.56560372  -0.0001127065  0.000463  0.000463  0.002775  0.000107
               *** Restarting incremental Fock matrix formation ***
  7   -290.56561216  -0.0000084474  0.000118  0.000309  0.000915  0.000033
  8   -290.56560993   0.0000022323  0.000212  0.000219  0.000639  0.000020
                  ***Gradient check signals convergence***
              ***Rediagonalizing the Fockian in SOSCF/NRSCF***

               *****************************************************
               *                     SUCCESS                       *
               *           SCF CONVERGED AFTER   9 CYCLES          *
               *****************************************************

Setting up the final grid:

General Integration Accuracy     IntAcc      ...  4.670
Radial Grid Type                 RadialGrid  ... Gauss-Chebyshev
Angular Grid (max. acc.)         AngularGrid ... Lebedev-302
Angular grid pruning method      GridPruning ... 3 (G Style)
Weight generation scheme         WeightScheme... Becke
Basis function cutoff            BFCut       ...    1.0000e-10
Integration weight cutoff        WCut        ...    1.0000e-14
Grids for H and He will be reduced by one unit

# of grid points (after initial pruning)     ...  87606 (   0.0 sec)
# of grid points (after weights+screening)   ...  79123 (   0.2 sec)
nearest neighbour list constructed           ...    0.0 sec
Grid point re-assignment to atoms done       ...    0.0 sec
Grid point division into batches done        ...    0.2 sec
Reduced shell lists constructed in    0.5 sec

Total number of grid points                  ...    79123
Total number of batches                      ...     1246
Average number of points per batch           ...       63
Average number of grid points per atom       ...     3956
Average number of shells per batch           ...    55.59 (68.63%)
Average number of basis functions per batch  ...   107.23 (65.79%)
Average number of large shells per batch     ...    42.33 (76.15%)
Average number of large basis fcns per batch ...    80.81 (75.36%)
Maximum spatial batch extension              ...  17.57, 15.54, 18.19 au
Average spatial batch extension              ...   0.95,  0.94,  0.94 au

Final grid set up in    0.7 sec
Final integration                            ... done (   0.6 sec)
Change in XC energy                          ...     0.000609076
Integrated number of electrons               ...    56.000044719
Previous integrated no of electrons          ...    56.002964589

----------------
TOTAL SCF ENERGY
----------------

Total Energy       :         -290.56500424 Eh           -7906.67573 eV

Components:
Nuclear Repulsion  :          316.66870672 Eh            8616.99359 eV
Electronic Energy  :         -607.23371096 Eh          -16523.66932 eV

One Electron Energy:        -1018.06147437 Eh          -27702.86110 eV
Two Electron Energy:          410.82776341 Eh           11179.19178 eV

Virial components:
Potential Energy   :         -578.03374090 Eh          -15729.09774 eV
Kinetic Energy     :          287.46873666 Eh            7822.42201 eV
Virial Ratio       :            2.01077080


DFT components:
N(Alpha)           :       28.000022359479 electrons
N(Beta)            :       28.000022359479 electrons
N(Total)           :       56.000044718957 electrons
E(X)               :      -42.073206615084 Eh       
E(C)               :       -1.842008334748 Eh       
E(XC)              :      -43.915214949832 Eh       

---------------
SCF CONVERGENCE
---------------

  Last Energy change         ...   -3.3813e-06  Tolerance :   1.0000e-06
  Last MAX-Density change    ...    1.2083e-04  Tolerance :   1.0000e-05
  Last RMS-Density change    ...    3.8989e-06  Tolerance :   1.0000e-06
  Last Orbital Gradient      ...    1.1567e-05  Tolerance :   5.0000e-05
  Last Orbital Rotation      ...    5.2077e-05  Tolerance :   5.0000e-05

             **** THE GBW FILE WAS UPDATED (1964.gbw) ****
             **** DENSITY FILE WAS UPDATED (1964.scfp.tmp) ****
             **** ENERGY FILE WAS UPDATED (1964.en.tmp) ****

                    ********************************
                    * MULLIKEN POPULATION ANALYSIS *
                    ********************************

-----------------------
MULLIKEN ATOMIC CHARGES
-----------------------
   0 C :   -0.040619
   1 C :    0.100693
   2 C :   -0.101086
   3 C :    0.087009
   4 N :   -0.283671
   5 C :    0.071199
   6 C :   -0.008933
   7 H :    0.024534
   8 H :    0.018395
   9 H :    0.022237
  10 H :    0.013100
  11 H :   -0.002306
  12 H :    0.002756
  13 H :    0.021228
  14 H :    0.015038
  15 H :    0.007669
  16 H :   -0.016222
  17 H :    0.032092
  18 H :    0.020057
  19 H :    0.016830
Sum of atomic charges:   -0.0000000

--------------------------------
MULLIKEN REDUCED ORBITAL CHARGES
--------------------------------
  0 C s       :     3.006295  s :     3.006295
      pz      :     1.005684  p :     3.008374
      px      :     0.989547
      py      :     1.013144
      dz2     :     0.004648  d :     0.025949
      dxz     :     0.003421
      dyz     :     0.006412
      dx2y2   :     0.003976
      dxy     :     0.007493
  1 C s       :     2.952018  s :     2.952018
      pz      :     0.982664  p :     2.913637
      px      :     0.974476
      py      :     0.956497
      dz2     :     0.007053  d :     0.033652
      dxz     :     0.004969
      dyz     :     0.007108
      dx2y2   :     0.005364
      dxy     :     0.009158
  2 C s       :     3.144597  s :     3.144597
      pz      :     1.039468  p :     2.897850
      px      :     0.937614
      py      :     0.920768
      dz2     :     0.011359  d :     0.058638
      dxz     :     0.007149
      dyz     :     0.011707
      dx2y2   :     0.013562
      dxy     :     0.014861
  3 C s       :     3.021217  s :     3.021217
      pz      :     0.963347  p :     2.843889
      px      :     0.897282
      py      :     0.983260
      dz2     :     0.006858  d :     0.047884
      dxz     :     0.009765
      dyz     :     0.008211
      dx2y2   :     0.012203
      dxy     :     0.010847
  4 N s       :     3.630357  s :     3.630357
      pz      :     1.416940  p :     3.620088
      px      :     1.047642
      py      :     1.155506
      dz2     :     0.006873  d :     0.033227
      dxz     :     0.006123
      dyz     :     0.003736
      dx2y2   :     0.007225
      dxy     :     0.009270
  5 C s       :     2.994701  s :     2.994701
      pz      :     0.885199  p :     2.885139
      px      :     0.964046
      py      :     1.035895
      dz2     :     0.012964  d :     0.048961
      dxz     :     0.014241
      dyz     :     0.004857
      dx2y2   :     0.008254
      dxy     :     0.008646
  6 C s       :     2.978376  s :     2.978376
      pz      :     1.010605  p :     3.005638
      px      :     0.997084
      py      :     0.997948
      dz2     :     0.004635  d :     0.024919
      dxz     :     0.007646
      dyz     :     0.001504
      dx2y2   :     0.005740
      dxy     :     0.005393
  7 H s       :     0.951970  s :     0.951970
      pz      :     0.009932  p :     0.023497
      px      :     0.004745
      py      :     0.008819
  8 H s       :     0.957964  s :     0.957964
      pz      :     0.011219  p :     0.023641
      px      :     0.004966
      py      :     0.007456
  9 H s       :     0.954143  s :     0.954143
      pz      :     0.005771  p :     0.023620
      px      :     0.007994
      py      :     0.009855
 10 H s       :     0.963881  s :     0.963881
      pz      :     0.005061  p :     0.023019
      px      :     0.008097
      py      :     0.009861
 11 H s       :     0.979482  s :     0.979482
      pz      :     0.011151  p :     0.022824
      px      :     0.005038
      py      :     0.006634
 12 H s       :     0.975842  s :     0.975842
      pz      :     0.012325  p :     0.021402
      px      :     0.004540
      py      :     0.004537
 13 H s       :     0.956410  s :     0.956410
      pz      :     0.011815  p :     0.022362
      px      :     0.004709
      py      :     0.005838
 14 H s       :     0.962001  s :     0.962001
      pz      :     0.010938  p :     0.022961
      px      :     0.005096
      py      :     0.006927
 15 H s       :     0.971019  s :     0.971019
      pz      :     0.003761  p :     0.021312
      px      :     0.005573
      py      :     0.011978
 16 H s       :     0.994861  s :     0.994861
      pz      :     0.009955  p :     0.021361
      px      :     0.006492
      py      :     0.004914
 17 H s       :     0.944331  s :     0.944331
      pz      :     0.010862  p :     0.023577
      px      :     0.007719
      py      :     0.004996
 18 H s       :     0.956327  s :     0.956327
      pz      :     0.010651  p :     0.023616
      px      :     0.007637
      py      :     0.005328
 19 H s       :     0.959419  s :     0.959419
      pz      :     0.005764  p :     0.023751
      px      :     0.005957
      py      :     0.012030


                     *******************************
                     * LOEWDIN POPULATION ANALYSIS *
                     *******************************

----------------------
LOEWDIN ATOMIC CHARGES
----------------------
   0 C :   -0.067688
   1 C :   -0.044032
   2 C :   -0.003276
   3 C :    0.004869
   4 N :   -0.107573
   5 C :    0.012422
   6 C :   -0.071164
   7 H :    0.027874
   8 H :    0.024201
   9 H :    0.026029
  10 H :    0.028264
  11 H :    0.028485
  12 H :    0.008914
  13 H :    0.017766
  14 H :    0.012041
  15 H :    0.020676
  16 H :   -0.001271
  17 H :    0.030160
  18 H :    0.028985
  19 H :    0.024316

-------------------------------
LOEWDIN REDUCED ORBITAL CHARGES
-------------------------------
  0 C s       :     2.837316  s :     2.837316
      pz      :     1.067530  p :     3.160883
      px      :     1.029930
      py      :     1.063423
      dz2     :     0.013629  d :     0.069489
      dxz     :     0.007242
      dyz     :     0.017951
      dx2y2   :     0.010801
      dxy     :     0.019866
  1 C s       :     2.835645  s :     2.835645
      pz      :     1.046891  p :     3.119117
      px      :     1.030665
      py      :     1.041561
      dz2     :     0.019300  d :     0.089270
      dxz     :     0.010388
      dyz     :     0.021217
      dx2y2   :     0.014424
      dxy     :     0.023942
  2 C s       :     2.835143  s :     2.835143
      pz      :     1.057641  p :     3.028439
      px      :     0.986092
      py      :     0.984706
      dz2     :     0.028259  d :     0.139693
      dxz     :     0.015118
      dyz     :     0.032274
      dx2y2   :     0.030314
      dxy     :     0.033729
  3 C s       :     2.834944  s :     2.834944
      pz      :     1.064542  p :     3.043180
      px      :     0.950166
      py      :     1.028473
      dz2     :     0.018650  d :     0.117007
      dxz     :     0.022534
      dyz     :     0.022525
      dx2y2   :     0.029325
      dxy     :     0.023973
  4 N s       :     3.200772  s :     3.200772
      pz      :     1.477390  p :     3.838596
      px      :     1.153827
      py      :     1.207379
      dz2     :     0.014293  d :     0.068205
      dxz     :     0.012500
      dyz     :     0.006208
      dx2y2   :     0.015870
      dxy     :     0.019335
  5 C s       :     2.840217  s :     2.840217
      pz      :     0.962006  p :     3.027465
      px      :     1.007664
      py      :     1.057796
      dz2     :     0.033921  d :     0.119895
      dxz     :     0.035530
      dyz     :     0.009198
      dx2y2   :     0.017259
      dxy     :     0.023988
  6 C s       :     2.840187  s :     2.840187
      pz      :     1.068667  p :     3.162513
      px      :     1.045287
      py      :     1.048559
      dz2     :     0.013588  d :     0.068463
      dxz     :     0.020931
      dyz     :     0.003324
      dx2y2   :     0.013513
      dxy     :     0.017107
  7 H s       :     0.905559  s :     0.905559
      pz      :     0.027911  p :     0.066567
      px      :     0.014327
      py      :     0.024329
  8 H s       :     0.909451  s :     0.909451
      pz      :     0.032646  p :     0.066348
      px      :     0.014773
      py      :     0.018928
  9 H s       :     0.907551  s :     0.907551
      pz      :     0.013265  p :     0.066420
      px      :     0.024730
      py      :     0.028425
 10 H s       :     0.905154  s :     0.905154
      pz      :     0.013325  p :     0.066581
      px      :     0.024093
      py      :     0.029163
 11 H s       :     0.904667  s :     0.904667
      pz      :     0.034215  p :     0.066848
      px      :     0.014390
      py      :     0.018244
 12 H s       :     0.919812  s :     0.919812
      pz      :     0.039182  p :     0.071274
      px      :     0.016286
      py      :     0.015805
 13 H s       :     0.912555  s :     0.912555
      pz      :     0.036153  p :     0.069678
      px      :     0.015602
      py      :     0.017923
 14 H s       :     0.916519  s :     0.916519
      pz      :     0.033711  p :     0.071440
      px      :     0.016813
      py      :     0.020915
 15 H s       :     0.914493  s :     0.914493
      pz      :     0.010784  p :     0.064831
      px      :     0.017297
      py      :     0.036749
 16 H s       :     0.934527  s :     0.934527
      pz      :     0.033771  p :     0.066744
      px      :     0.019958
      py      :     0.013014
 17 H s       :     0.902633  s :     0.902633
      pz      :     0.031492  p :     0.067207
      px      :     0.022567
      py      :     0.013148
 18 H s       :     0.904443  s :     0.904443
      pz      :     0.030455  p :     0.066573
      px      :     0.021895
      py      :     0.014223
 19 H s       :     0.909056  s :     0.909056
      pz      :     0.013295  p :     0.066628
      px      :     0.017017
      py      :     0.036316


                      *****************************
                      * MAYER POPULATION ANALYSIS *
                      *****************************

  NA   - Mulliken gross atomic population
  ZA   - Total nuclear charge
  QA   - Mulliken gross atomic charge
  VA   - Mayer's total valence
  BVA  - Mayer's bonded valence
  FA   - Mayer's free valence

  ATOM       NA         ZA         QA         VA         BVA        FA
  0 C      6.0406     6.0000    -0.0406     4.0265     4.0265     0.0000
  1 C      5.8993     6.0000     0.1007     3.9995     3.9995     0.0000
  2 C      6.1011     6.0000    -0.1011     4.1088     4.1088     0.0000
  3 C      5.9130     6.0000     0.0870     3.9655     3.9655    -0.0000
  4 N      7.2837     7.0000    -0.2837     3.0110     3.0110     0.0000
  5 C      5.9288     6.0000     0.0712     4.0935     4.0935    -0.0000
  6 C      6.0089     6.0000    -0.0089     4.0047     4.0047     0.0000
  7 H      0.9755     1.0000     0.0245     0.9831     0.9831     0.0000
  8 H      0.9816     1.0000     0.0184     0.9873     0.9873    -0.0000
  9 H      0.9778     1.0000     0.0222     0.9896     0.9896     0.0000
 10 H      0.9869     1.0000     0.0131     0.9798     0.9798     0.0000
 11 H      1.0023     1.0000    -0.0023     0.9997     0.9997     0.0000
 12 H      0.9972     1.0000     0.0028     0.9947     0.9947    -0.0000
 13 H      0.9788     1.0000     0.0212     0.9834     0.9834    -0.0000
 14 H      0.9850     1.0000     0.0150     0.9889     0.9889     0.0000
 15 H      0.9923     1.0000     0.0077     0.9784     0.9784    -0.0000
 16 H      1.0162     1.0000    -0.0162     0.9885     0.9885    -0.0000
 17 H      0.9679     1.0000     0.0321     0.9993     0.9993    -0.0000
 18 H      0.9799     1.0000     0.0201     0.9883     0.9883     0.0000
 19 H      0.9832     1.0000     0.0168     0.9947     0.9947    -0.0000

  Mayer bond orders larger than 0.1
B(  0-C ,  1-C ) :   1.1066 B(  0-C ,  7-H ) :   0.9612 B(  0-C ,  8-H ) :   0.9665 
B(  0-C ,  9-H ) :   0.9678 B(  1-C ,  2-C ) :   1.0535 B(  1-C , 10-H ) :   0.9246 
B(  1-C , 11-H ) :   0.9164 B(  2-C ,  3-C ) :   1.0595 B(  2-C ,  4-N ) :   0.9133 
B(  2-C , 12-H ) :   0.9216 B(  3-C ,  4-N ) :   0.9778 B(  3-C , 13-H ) :   0.9358 
B(  3-C , 14-H ) :   0.9261 B(  4-N ,  5-C ) :   1.0063 B(  5-C ,  6-C ) :   1.1223 
B(  5-C , 15-H ) :   0.9393 B(  5-C , 16-H ) :   0.9116 B(  6-C , 17-H ) :   0.9601 
B(  6-C , 18-H ) :   0.9584 B(  6-C , 19-H ) :   0.9620 


 *********************************** NBO 6.0 ***********************************
             N A T U R A L   A T O M I C   O R B I T A L   A N D
          N A T U R A L   B O N D   O R B I T A L   A N A L Y S I S
 ***************************** Kiya KiyaLu (100703) ****************************
  (c) Copyright 1996-2015 Board of Regents of the University of Wisconsin System
      on behalf of the Theoretical Chemistry Institute.  All rights reserved.

          Cite this program as:

          NBO 6.0.  E. D. Glendening, J. K. Badenhoop, A. E. Reed,
          J. E. Carpenter, J. A. Bohmann, C. M. Morales, C. R. Landis,
          and F. Weinhold (Theoretical Chemistry Institute, University
          of Wisconsin, Madison, WI, 2013); http://nbo6.chem.wisc.edu/

       /NPA    / : Natural Population Analysis
       /NBO    / : Natural Bond Orbital Analysis
       /AONBO  / : Write the AO to NBO transformation to lfn77
       /FILE   / : Set to 1964

 Filename set to 1964

 Job title:  *** NBO job generated by orca_scf

 Warning: MOs are non-orthogonal; program will continue

 Warning: -2310.66197 electrons reside outside the linearly independent MO space


 NATURAL POPULATIONS:  Natural atomic orbital occupancies

  NAO Atom No lang   Type(AO)    Occupancy      Energy
 -------------------------------------------------------
   1    C  1  s      Cor( 1s)     1.99922      -9.77000
   2    C  1  s      Val( 2s)     1.08710      -0.20905
   3    C  1  s      Ryd( 3s)     0.00046       0.83397
   4    C  1  px     Val( 2p)     1.10601      -0.06002
   5    C  1  px     Ryd( 3p)     0.00093       0.47986
   6    C  1  py     Val( 2p)     1.21712      -0.06150
   7    C  1  py     Ryd( 3p)     0.00195       0.59823
   8    C  1  pz     Val( 2p)     1.23143      -0.06193
   9    C  1  pz     Ryd( 3p)     0.00205       0.60550
  10    C  1  dxy    Ryd( 3d)     0.00064       2.28074
  11    C  1  dxz    Ryd( 3d)     0.00028       2.03770
  12    C  1  dyz    Ryd( 3d)     0.00063       2.35231
  13    C  1  dx2y2  Ryd( 3d)     0.00036       2.12717
  14    C  1  dz2    Ryd( 3d)     0.00046       2.24798

  15    C  2  s      Cor( 1s)     1.99906      -9.76555
  16    C  2  s      Val( 2s)     1.01272      -0.18544
  17    C  2  s      Ryd( 3s)     0.00100       0.86645
  18    C  2  px     Val( 2p)     1.10717      -0.06177
  19    C  2  px     Ryd( 3p)     0.00338       0.59801
  20    C  2  py     Val( 2p)     1.16553      -0.06107
  21    C  2  py     Ryd( 3p)     0.00433       0.67793
  22    C  2  pz     Val( 2p)     1.15926      -0.05985
  23    C  2  pz     Ryd( 3p)     0.00219       0.59486
  24    C  2  dxy    Ryd( 3d)     0.00078       2.30050
  25    C  2  dxz    Ryd( 3d)     0.00042       2.02733
  26    C  2  dyz    Ryd( 3d)     0.00062       2.29866
  27    C  2  dx2y2  Ryd( 3d)     0.00045       2.11778
  28    C  2  dz2    Ryd( 3d)     0.00060       2.28799

  29    C  3  s      Cor( 1s)     1.99897      -9.79722
  30    C  3  s      Val( 2s)     0.91357      -0.15978
  31    C  3  s      Ryd( 3s)     0.00449       0.76151
  32    C  3  px     Val( 2p)     0.96255      -0.07281
  33    C  3  px     Ryd( 3p)     0.00365       0.64353
  34    C  3  py     Val( 2p)     0.99505      -0.06647
  35    C  3  py     Ryd( 3p)     0.00359       0.63066
  36    C  3  pz     Val( 2p)     1.17347      -0.06482
  37    C  3  pz     Ryd( 3p)     0.00408       0.86385
  38    C  3  dxy    Ryd( 3d)     0.00163       2.14552
  39    C  3  dxz    Ryd( 3d)     0.00077       1.96722
  40    C  3  dyz    Ryd( 3d)     0.00100       2.25638
  41    C  3  dx2y2  Ryd( 3d)     0.00157       2.10107
  42    C  3  dz2    Ryd( 3d)     0.00124       2.30623

  43    C  4  s      Cor( 1s)     1.99907      -9.79631
  44    C  4  s      Val( 2s)     0.99856      -0.18517
  45    C  4  s      Ryd( 3s)     0.00134       0.72586
  46    C  4  px     Val( 2p)     0.91993      -0.06723
  47    C  4  px     Ryd( 3p)     0.00276       0.49525
  48    C  4  py     Val( 2p)     1.08429      -0.06711
  49    C  4  py     Ryd( 3p)     0.00298       0.47473
  50    C  4  pz     Val( 2p)     1.22655      -0.05836
  51    C  4  pz     Ryd( 3p)     0.00487       0.83729
  52    C  4  dxy    Ryd( 3d)     0.00153       2.03174
  53    C  4  dxz    Ryd( 3d)     0.00109       2.08238
  54    C  4  dyz    Ryd( 3d)     0.00066       2.24243
  55    C  4  dx2y2  Ryd( 3d)     0.00134       2.18244
  56    C  4  dz2    Ryd( 3d)     0.00106       2.25891

  57    N  5  s      Cor( 1s)     1.99928     -13.82115
  58    N  5  s      Val( 2s)     1.33348      -0.46320
  59    N  5  s      Ryd( 3s)     0.00195       1.17893
  60    N  5  px     Val( 2p)     1.27423      -0.18643
  61    N  5  px     Ryd( 3p)     0.00420       1.06728
  62    N  5  py     Val( 2p)     1.29644      -0.16013
  63    N  5  py     Ryd( 3p)     0.00220       1.01121
  64    N  5  pz     Val( 2p)     1.59045      -0.17810
  65    N  5  pz     Ryd( 3p)     0.00390       0.99109
  66    N  5  dxy    Ryd( 3d)     0.00157       2.59111
  67    N  5  dxz    Ryd( 3d)     0.00197       2.45400
  68    N  5  dyz    Ryd( 3d)     0.00085       2.29358
  69    N  5  dx2y2  Ryd( 3d)     0.00139       2.38755
  70    N  5  dz2    Ryd( 3d)     0.00189       2.52718

  71    C  6  s      Cor( 1s)     1.99910      -9.79845
  72    C  6  s      Val( 2s)     0.99598      -0.18625
  73    C  6  s      Ryd( 3s)     0.00164       0.84577
  74    C  6  px     Val( 2p)     1.06421      -0.06924
  75    C  6  px     Ryd( 3p)     0.00335       0.62615
  76    C  6  py     Val( 2p)     1.16245      -0.06832
  77    C  6  py     Ryd( 3p)     0.00271       0.67824
  78    C  6  pz     Val( 2p)     0.99265      -0.05230
  79    C  6  pz     Ryd( 3p)     0.00268       0.54625
  80    C  6  dxy    Ryd( 3d)     0.00078       2.24924
  81    C  6  dxz    Ryd( 3d)     0.00124       2.30829
  82    C  6  dyz    Ryd( 3d)     0.00051       2.01449
  83    C  6  dx2y2  Ryd( 3d)     0.00080       2.14913
  84    C  6  dz2    Ryd( 3d)     0.00128       2.26208

  85    C  7  s      Cor( 1s)     1.99922      -9.76735
  86    C  7  s      Val( 2s)     1.09157      -0.21218
  87    C  7  s      Ryd( 3s)     0.00048       0.82560
  88    C  7  px     Val( 2p)     1.15786      -0.06209
  89    C  7  px     Ryd( 3p)     0.00185       0.52525
  90    C  7  py     Val( 2p)     1.16404      -0.06061
  91    C  7  py     Ryd( 3p)     0.00125       0.52706
  92    C  7  pz     Val( 2p)     1.23260      -0.05921
  93    C  7  pz     Ryd( 3p)     0.00193       0.59402
  94    C  7  dxy    Ryd( 3d)     0.00051       2.24672
  95    C  7  dxz    Ryd( 3d)     0.00071       2.37136
  96    C  7  dyz    Ryd( 3d)     0.00014       2.02940
  97    C  7  dx2y2  Ryd( 3d)     0.00044       2.16074
  98    C  7  dz2    Ryd( 3d)     0.00047       2.24549

  99    H  8  s      Val( 1s)     0.77134       0.07537
 100    H  8  s      Ryd( 2s)     0.00143       0.33160
 101    H  8  px     Ryd( 2p)     0.00014       1.70685
 102    H  8  py     Ryd( 2p)     0.00042       1.99044
 103    H  8  pz     Ryd( 2p)     0.00050       2.06347

 104    H  9  s      Val( 1s)     0.78124       0.06875
 105    H  9  s      Ryd( 2s)     0.00190       0.34352
 106    H  9  px     Ryd( 2p)     0.00016       1.70618
 107    H  9  py     Ryd( 2p)     0.00030       1.86814
 108    H  9  pz     Ryd( 2p)     0.00061       2.15326

 109    H 10  s      Val( 1s)     0.77852       0.07257
 110    H 10  s      Ryd( 2s)     0.00187       0.35266
 111    H 10  px     Ryd( 2p)     0.00039       1.95267
 112    H 10  py     Ryd( 2p)     0.00049       2.04397
 113    H 10  pz     Ryd( 2p)     0.00017       1.74048

 114    H 11  s      Val( 1s)     0.76818       0.07880
 115    H 11  s      Ryd( 2s)     0.00304       0.35254
 116    H 11  px     Ryd( 2p)     0.00042       1.98789
 117    H 11  py     Ryd( 2p)     0.00053       2.10009
 118    H 11  pz     Ryd( 2p)     0.00014       1.72323

 119    H 12  s      Val( 1s)     0.76472       0.08036
 120    H 12  s      Ryd( 2s)     0.00321       0.35760
 121    H 12  px     Ryd( 2p)     0.00015       1.77058
 122    H 12  py     Ryd( 2p)     0.00026       1.84613
 123    H 12  pz     Ryd( 2p)     0.00069       2.14728

 124    H 13  s      Val( 1s)     0.78657       0.07096
 125    H 13  s      Ryd( 2s)     0.00415       0.35799
 126    H 13  px     Ryd( 2p)     0.00017       1.73499
 127    H 13  py     Ryd( 2p)     0.00017       1.95026
 128    H 13  pz     Ryd( 2p)     0.00082       2.23584

 129    H 14  s      Val( 1s)     0.78366       0.07650
 130    H 14  s      Ryd( 2s)     0.00202       0.32473
 131    H 14  px     Ryd( 2p)     0.00016       1.77272
 132    H 14  py     Ryd( 2p)     0.00019       1.84210
 133    H 14  pz     Ryd( 2p)     0.00074       2.20536

 134    H 15  s      Val( 1s)     0.79271       0.06378
 135    H 15  s      Ryd( 2s)     0.00323       0.33504
 136    H 15  px     Ryd( 2p)     0.00020       1.75905
 137    H 15  py     Ryd( 2p)     0.00032       1.90801
 138    H 15  pz     Ryd( 2p)     0.00061       2.15585

 139    H 16  s      Val( 1s)     0.77531       0.07650
 140    H 16  s      Ryd( 2s)     0.00264       0.32439
 141    H 16  px     Ryd( 2p)     0.00022       1.85535
 142    H 16  py     Ryd( 2p)     0.00082       2.19249
 143    H 16  pz     Ryd( 2p)     0.00010       1.71486

 144    H 17  s      Val( 1s)     0.81124       0.05231
 145    H 17  s      Ryd( 2s)     0.00546       0.37595
 146    H 17  px     Ryd( 2p)     0.00033       1.89636
 147    H 17  py     Ryd( 2p)     0.00014       1.75044
 148    H 17  pz     Ryd( 2p)     0.00064       2.09840

 149    H 18  s      Val( 1s)     0.77032       0.07893
 150    H 18  s      Ryd( 2s)     0.00294       0.34186
 151    H 18  px     Ryd( 2p)     0.00033       1.94604
 152    H 18  py     Ryd( 2p)     0.00013       1.69430
 153    H 18  pz     Ryd( 2p)     0.00059       2.11187

 154    H 19  s      Val( 1s)     0.77257       0.07027
 155    H 19  s      Ryd( 2s)     0.00148       0.33424
 156    H 19  px     Ryd( 2p)     0.00035       1.91654
 157    H 19  py     Ryd( 2p)     0.00016       1.71958
 158    H 19  pz     Ryd( 2p)     0.00056       2.11553

 159    H 20  s      Val( 1s)     0.78037       0.07003
 160    H 20  s      Ryd( 2s)     0.00162       0.36595
 161    H 20  px     Ryd( 2p)     0.00021       1.77130
 162    H 20  py     Ryd( 2p)     0.00073       2.22145
 163    H 20  pz     Ryd( 2p)     0.00017       1.73224

   1 low occupancy (<1.9990e) core orbital  found on  C  3


 Summary of Natural Population Analysis:

                                     Natural Population
             Natural    ---------------------------------------------
  Atom No    Charge        Core      Valence    Rydberg      Total
 --------------------------------------------------------------------
    C  1   -0.64863      1.99922     4.64166    0.00775     6.64863
    C  2   -0.45751      1.99906     4.44468    0.01377     6.45751
    C  3   -0.06563      1.99897     4.04464    0.02202     6.06563
    C  4   -0.24601      1.99907     4.22932    0.01762     6.24601
    N  5   -0.51381      1.99928     5.49461    0.01991     7.51381
    C  6   -0.22938      1.99910     4.21529    0.01498     6.22938
    C  7   -0.65308      1.99922     4.64607    0.00779     6.65308
    H  8    0.22618      0.00000     0.77134    0.00248     0.77382
    H  9    0.21579      0.00000     0.78124    0.00297     0.78421
    H 10    0.21855      0.00000     0.77852    0.00293     0.78145
    H 11    0.22769      0.00000     0.76818    0.00413     0.77231
    H 12    0.23097      0.00000     0.76472    0.00431     0.76903
    H 13    0.20812      0.00000     0.78657    0.00531     0.79188
    H 14    0.21322      0.00000     0.78366    0.00311     0.78678
    H 15    0.20293      0.00000     0.79271    0.00436     0.79707
    H 16    0.22091      0.00000     0.77531    0.00378     0.77909
    H 17    0.18220      0.00000     0.81124    0.00656     0.81780
    H 18    0.22569      0.00000     0.77032    0.00399     0.77431
    H 19    0.22488      0.00000     0.77257    0.00255     0.77512
    H 20    0.21691      0.00000     0.78037    0.00272     0.78309
 ====================================================================
 * Total *  0.00000     13.99392    41.85305    0.15304    56.00000

                                 Natural Population
 ---------------------------------------------------------
   Core                      13.99392 ( 99.9565% of   14)
   Valence                   41.85305 ( 99.6501% of   42)
   Natural Minimal Basis     55.84696 ( 99.7267% of   56)
   Natural Rydberg Basis      0.15304 (  0.2733% of   56)
 ---------------------------------------------------------

    Atom No         Natural Electron Configuration
 ----------------------------------------------------------------------------
      C  1      [core]2s( 1.09)2p( 3.55)
      C  2      [core]2s( 1.01)2p( 3.43)3p( 0.01)
      C  3      [core]2s( 0.91)2p( 3.13)3p( 0.01)3d( 0.01)
      C  4      [core]2s( 1.00)2p( 3.23)3p( 0.01)3d( 0.01)
      N  5      [core]2s( 1.33)2p( 4.16)3p( 0.01)3d( 0.01)
      C  6      [core]2s( 1.00)2p( 3.22)3p( 0.01)
      C  7      [core]2s( 1.09)2p( 3.55)3p( 0.01)
      H  8            1s( 0.77)
      H  9            1s( 0.78)
      H 10            1s( 0.78)
      H 11            1s( 0.77)
      H 12            1s( 0.76)
      H 13            1s( 0.79)
      H 14            1s( 0.78)
      H 15            1s( 0.79)
      H 16            1s( 0.78)
      H 17            1s( 0.81)2s( 0.01)
      H 18            1s( 0.77)
      H 19            1s( 0.77)
      H 20            1s( 0.78)


 NATURAL BOND ORBITAL ANALYSIS:

                            Occupancies       Lewis Structure    Low   High
         Max    Occ     -------------------  -----------------   occ   occ
  Cycle  Ctr   Thresh    Lewis   non-Lewis     CR  BD  nC  LP    (L)   (NL)
 ============================================================================
    1     2     1.90    55.48336   0.51664      7  20   0   1     0      0
 ----------------------------------------------------------------------------

 Structure accepted: No low occupancy Lewis orbitals

 -------------------------------------------------------
   Core                     13.99392 ( 99.957% of  14)
   Valence Lewis            41.48944 ( 98.784% of  42)
  ==================      =============================
   Total Lewis              55.48336 ( 99.077% of  56)
  -----------------------------------------------------
   Valence non-Lewis         0.40597 (  0.725% of  56)
   Rydberg non-Lewis         0.11068 (  0.198% of  56)
  ==================      =============================
   Total non-Lewis           0.51664 (  0.923% of  56)
 -------------------------------------------------------


     (Occupancy)   Bond orbital / Coefficients / Hybrids
 ------------------ Lewis ------------------------------------------------------
   1. (1.99922) CR ( 1) C  1            s(100.00%)
                                         1.0000  0.0000  0.0000  0.0000  0.0000
                                         0.0000  0.0000  0.0000  0.0000  0.0000
                                         0.0000  0.0000  0.0000  0.0000
   2. (1.99906) CR ( 1) C  2            s(100.00%)
                                         1.0000  0.0000  0.0000  0.0000  0.0000
                                         0.0000  0.0000  0.0000  0.0000  0.0000
                                         0.0000  0.0000  0.0000  0.0000
   3. (1.99897) CR ( 1) C  3            s(100.00%)
                                         1.0000  0.0000  0.0000  0.0000  0.0000
                                         0.0000  0.0000  0.0000  0.0000  0.0000
                                         0.0000  0.0000  0.0000  0.0000
   4. (1.99907) CR ( 1) C  4            s(100.00%)
                                         1.0000  0.0000  0.0000  0.0000  0.0000
                                         0.0000  0.0000  0.0000  0.0000  0.0000
                                         0.0000  0.0000  0.0000  0.0000
   5. (1.99928) CR ( 1) N  5            s(100.00%)
                                         1.0000  0.0000  0.0000  0.0000  0.0000
                                         0.0000  0.0000  0.0000  0.0000  0.0000
                                         0.0000  0.0000  0.0000  0.0000
   6. (1.99910) CR ( 1) C  6            s(100.00%)
                                         1.0000  0.0000  0.0000  0.0000  0.0000
                                         0.0000  0.0000  0.0000  0.0000  0.0000
                                         0.0000  0.0000  0.0000  0.0000
   7. (1.99922) CR ( 1) C  7            s(100.00%)
                                         1.0000  0.0000  0.0000  0.0000  0.0000
                                         0.0000  0.0000  0.0000  0.0000  0.0000
                                         0.0000  0.0000  0.0000  0.0000
   8. (1.90180) LP ( 1) N  5            s( 27.41%)p 2.64( 72.49%)d 0.00(  0.10%)
                                         0.0000  0.5235 -0.0066  0.4244  0.0101
                                         0.0021  0.0048 -0.7377 -0.0224 -0.0003
                                         0.0260 -0.0010 -0.0070 -0.0155
   9. (1.98356) BD ( 1) C  1- C  2
               ( 49.58%)   0.7041* C  1 s( 30.19%)p 2.31( 69.78%)d 0.00(  0.03%)
                                         0.0000  0.5495  0.0004  0.7886  0.0020
                                        -0.2750  0.0092 -0.0064 -0.0122 -0.0099
                                         0.0000  0.0000  0.0126 -0.0090
               ( 50.42%)   0.7101* C  2 s( 27.84%)p 2.59( 72.13%)d 0.00(  0.03%)
                                         0.0000  0.5275  0.0102 -0.7983 -0.0046
                                         0.2889  0.0140 -0.0044 -0.0159 -0.0095
                                        -0.0022 -0.0002  0.0133 -0.0089
  10. (1.98701) BD ( 1) C  1- H  8
               ( 61.34%)   0.7832* C  1 s( 23.30%)p 3.29( 76.66%)d 0.00(  0.04%)
                                         0.0000  0.4827  0.0047 -0.1440 -0.0091
                                         0.5657 -0.0026 -0.6525  0.0067 -0.0030
                                         0.0033 -0.0164 -0.0068  0.0068
               ( 38.66%)   0.6218* H  8 s( 99.91%)p 0.00(  0.09%)
                                         0.9996 -0.0008  0.0056 -0.0194  0.0222
  11. (1.98803) BD ( 1) C  1- H  9
               ( 60.97%)   0.7808* C  1 s( 23.18%)p 3.31( 76.79%)d 0.00(  0.04%)
                                         0.0000  0.4814 -0.0022 -0.1867 -0.0141
                                         0.4091  0.0061  0.7519 -0.0052 -0.0030
                                        -0.0053  0.0134 -0.0028  0.0123
               ( 39.03%)   0.6248* H  9 s( 99.91%)p 0.00(  0.09%)
                                         0.9995 -0.0022  0.0080 -0.0149 -0.0255
  12. (1.98817) BD ( 1) C  1- H 10
               ( 61.11%)   0.7817* C  1 s( 23.29%)p 3.29( 76.67%)d 0.00(  0.04%)
                                         0.0000  0.4826 -0.0024 -0.5674 -0.0122
                                        -0.6605  0.0099 -0.0906 -0.0027  0.0161
                                         0.0021  0.0025 -0.0034 -0.0095
               ( 38.89%)   0.6236* H 10 s( 99.91%)p 0.00(  0.09%)
                                         0.9995 -0.0022  0.0205  0.0221  0.0029
  13. (1.97873) BD ( 1) C  2- C  3
               ( 49.62%)   0.7044* C  2 s( 28.75%)p 2.48( 71.22%)d 0.00(  0.04%)
                                         0.0000  0.5361  0.0055  0.1549  0.0153
                                        -0.5413  0.0016  0.6285  0.0003 -0.0032
                                         0.0035 -0.0160 -0.0058  0.0071
               ( 50.38%)   0.7098* C  3 s( 32.85%)p 2.04( 67.12%)d 0.00(  0.03%)
                                         0.0000  0.5730  0.0091 -0.1436  0.0125
                                         0.5303  0.0119 -0.6071  0.0219 -0.0028
                                         0.0033 -0.0122 -0.0067  0.0100
  14. (1.97116) BD ( 1) C  2- H 11
               ( 61.57%)   0.7846* C  2 s( 21.54%)p 3.64( 78.42%)d 0.00(  0.04%)
                                         0.0000  0.4641 -0.0046  0.5550 -0.0001
                                         0.6873 -0.0095  0.0595 -0.0144  0.0158
                                         0.0027  0.0032 -0.0033 -0.0092
               ( 38.43%)   0.6199* H 11 s( 99.90%)p 0.00(  0.10%)
                                         0.9995 -0.0042 -0.0210 -0.0235 -0.0009
  15. (1.97340) BD ( 1) C  2- H 12
               ( 61.73%)   0.7857* C  2 s( 21.85%)p 3.58( 78.12%)d 0.00(  0.03%)
                                         0.0000  0.4673 -0.0071  0.1728  0.0093
                                        -0.3876  0.0171 -0.7751  0.0013 -0.0032
                                        -0.0047  0.0134 -0.0033  0.0108
               ( 38.27%)   0.6186* H 12 s( 99.89%)p 0.00(  0.11%)
                                         0.9995 -0.0040 -0.0084  0.0136  0.0286
  16. (1.95754) BD ( 1) C  3- C  4
               ( 50.26%)   0.7089* C  3 s( 21.45%)p 3.66( 78.48%)d 0.00(  0.07%)
                                         0.0000  0.4631  0.0095 -0.4939 -0.0044
                                        -0.7305 -0.0026 -0.0839  0.0132  0.0077
                                         0.0002  0.0063 -0.0207 -0.0127
               ( 49.74%)   0.7053* C  4 s( 23.24%)p 3.30( 76.68%)d 0.00(  0.08%)
                                         0.0000  0.4821  0.0033 -0.2418 -0.0067
                                         0.8387 -0.0116  0.0696 -0.0014  0.0090
                                        -0.0011  0.0035 -0.0220 -0.0133
  17. (1.95558) BD ( 1) C  3- N  5
               ( 40.01%)   0.6326* C  3 s( 18.62%)p 4.36( 81.22%)d 0.01(  0.16%)
                                         0.0000  0.4314  0.0103  0.8496  0.0070
                                        -0.2954  0.0051 -0.0523 -0.0177 -0.0325
                                        -0.0046  0.0043  0.0083 -0.0208
               ( 59.99%)   0.7745* N  5 s( 21.79%)p 3.58( 78.08%)d 0.01(  0.13%)
                                         0.0000  0.4668  0.0016 -0.4224 -0.0123
                                         0.7705 -0.0181  0.0897  0.0122 -0.0259
                                        -0.0087  0.0170  0.0083 -0.0127
  18. (1.98106) BD ( 1) C  3- H 13
               ( 61.34%)   0.7832* C  3 s( 27.10%)p 2.69( 72.87%)d 0.00(  0.03%)
                                         0.0000  0.5202 -0.0191 -0.1072 -0.0075
                                         0.3111  0.0087  0.7875 -0.0127 -0.0007
                                        -0.0024  0.0062 -0.0012  0.0163
               ( 38.66%)   0.6218* H 13 s( 99.89%)p 0.00(  0.11%)
                                         0.9994 -0.0093  0.0056 -0.0116 -0.0309
  19. (1.95887) BD ( 1) C  4- N  5
               ( 39.95%)   0.6320* C  4 s( 18.78%)p 4.32( 81.05%)d 0.01(  0.17%)
                                         0.0000  0.4334  0.0010  0.8992  0.0169
                                         0.0121 -0.0094 -0.0236 -0.0295  0.0232
                                         0.0017 -0.0002  0.0254 -0.0219
               ( 60.05%)   0.7749* N  5 s( 20.06%)p 3.98( 79.81%)d 0.01(  0.13%)
                                         0.0000  0.4479  0.0046 -0.6429 -0.0084
                                        -0.6171  0.0229 -0.0545  0.0197  0.0185
                                        -0.0096 -0.0123  0.0194 -0.0174
  20. (1.98832) BD ( 1) C  4- H 14
               ( 61.20%)   0.7823* C  4 s( 28.78%)p 2.47( 71.18%)d 0.00(  0.03%)
                                         0.0000  0.5365  0.0036 -0.2725 -0.0004
                                        -0.3265 -0.0159 -0.7283  0.0155  0.0019
                                         0.0069  0.0070 -0.0020  0.0154
               ( 38.80%)   0.6229* H 14 s( 99.90%)p 0.00(  0.10%)
                                         0.9995 -0.0047  0.0099  0.0126  0.0274
  21. (1.98911) BD ( 1) C  4- H 15
               ( 60.80%)   0.7798* C  4 s( 29.08%)p 2.44( 70.88%)d 0.00(  0.04%)
                                         0.0000  0.5392 -0.0069 -0.2363 -0.0188
                                        -0.4347 -0.0129  0.6805 -0.0211  0.0023
                                        -0.0056 -0.0118 -0.0025  0.0142
               ( 39.20%)   0.6261* H 15 s( 99.90%)p 0.00(  0.10%)
                                         0.9995 -0.0067  0.0108  0.0158 -0.0247
  22. (1.98263) BD ( 1) N  5- C  6
               ( 61.25%)   0.7826* N  5 s( 30.66%)p 2.26( 69.26%)d 0.00(  0.08%)
                                         0.0000  0.5537  0.0035  0.4754 -0.0252
                                        -0.1520  0.0093  0.6653  0.0094 -0.0009
                                         0.0115 -0.0061 -0.0004  0.0245
               ( 38.75%)   0.6225* C  6 s( 24.03%)p 3.16( 75.86%)d 0.00(  0.12%)
                                         0.0000  0.4900  0.0113 -0.4847  0.0024
                                         0.1518 -0.0129 -0.7067 -0.0324 -0.0054
                                         0.0265 -0.0091  0.0078  0.0171
  23. (1.98584) BD ( 1) C  6- C  7
               ( 50.36%)   0.7097* C  6 s( 29.15%)p 2.43( 70.81%)d 0.00(  0.04%)
                                         0.0000  0.5397  0.0130  0.6135  0.0091
                                         0.5708 -0.0087  0.0758  0.0083  0.0169
                                         0.0010  0.0008 -0.0002 -0.0094
               ( 49.64%)   0.7045* C  7 s( 29.99%)p 2.33( 69.98%)d 0.00(  0.04%)
                                         0.0000  0.5475  0.0076 -0.6106  0.0000
                                        -0.5670 -0.0077 -0.0733  0.0057  0.0163
                                         0.0021  0.0018  0.0015 -0.0093
  24. (1.97585) BD ( 1) C  6- H 16
               ( 61.34%)   0.7832* C  6 s( 23.01%)p 3.34( 76.95%)d 0.00(  0.04%)
                                         0.0000  0.4797  0.0006  0.3375 -0.0108
                                        -0.8063  0.0087 -0.0729  0.0044 -0.0113
                                        -0.0025  0.0038 -0.0116 -0.0101
               ( 38.66%)   0.6218* H 16 s( 99.89%)p 0.00(  0.11%)
                                         0.9994 -0.0046 -0.0129  0.0311  0.0023
  25. (1.98570) BD ( 1) C  6- H 17
               ( 60.20%)   0.7759* C  6 s( 23.84%)p 3.19( 76.12%)d 0.00(  0.04%)
                                         0.0000  0.4879 -0.0182 -0.5227  0.0181
                                         0.0078 -0.0167  0.6981  0.0036 -0.0003
                                        -0.0171  0.0011  0.0059  0.0093
               ( 39.80%)   0.6309* H 17 s( 99.90%)p 0.00(  0.10%)
                                         0.9994 -0.0111  0.0165  0.0007 -0.0274
  26. (1.98649) BD ( 1) C  7- H 18
               ( 61.49%)   0.7842* C  7 s( 23.50%)p 3.25( 76.47%)d 0.00(  0.04%)
                                         0.0000  0.4847 -0.0029  0.5228  0.0052
                                        -0.0046  0.0087 -0.7009  0.0067 -0.0006
                                        -0.0153  0.0012  0.0055  0.0095
               ( 38.51%)   0.6205* H 18 s( 99.90%)p 0.00(  0.10%)
                                         0.9995 -0.0031 -0.0180 -0.0003  0.0250
  27. (1.98391) BD ( 1) C  7- H 19
               ( 61.19%)   0.7823* C  7 s( 23.23%)p 3.30( 76.73%)d 0.00(  0.04%)
                                         0.0000  0.4820  0.0002  0.4958  0.0048
                                        -0.1599  0.0098  0.7041 -0.0051 -0.0040
                                         0.0148 -0.0065  0.0035  0.0100
               ( 38.81%)   0.6230* H 19 s( 99.91%)p 0.00(  0.09%)
                                         0.9995 -0.0006 -0.0177  0.0045 -0.0240
  28. (1.98669) BD ( 1) C  7- H 20
               ( 60.98%)   0.7809* C  7 s( 23.28%)p 3.29( 76.69%)d 0.00(  0.04%)
                                         0.0000  0.4824 -0.0035 -0.3276  0.0151
                                         0.8076  0.0046  0.0840  0.0019 -0.0122
                                        -0.0010  0.0033 -0.0103 -0.0094
               ( 39.02%)   0.6247* H 20 s( 99.90%)p 0.00(  0.10%)
                                         0.9995 -0.0017  0.0101 -0.0293 -0.0026
 ---------------- non-Lewis ----------------------------------------------------
  29. (0.00960) BD*( 1) C  1- C  2
               ( 50.42%)   0.7101* C  1 s( 30.19%)p 2.31( 69.78%)d 0.00(  0.03%)
                                         0.0000  0.5495  0.0004  0.7886  0.0020
                                        -0.2750  0.0092 -0.0064 -0.0122 -0.0099
                                         0.0000  0.0000  0.0126 -0.0090
               ( 49.58%)  -0.7041* C  2 s( 27.84%)p 2.59( 72.13%)d 0.00(  0.03%)
                                         0.0000  0.5275  0.0102 -0.7983 -0.0046
                                         0.2889  0.0140 -0.0044 -0.0159 -0.0095
                                        -0.0022 -0.0002  0.0133 -0.0089
  30. (0.00631) BD*( 1) C  1- H  8
               ( 38.66%)   0.6218* C  1 s( 23.30%)p 3.29( 76.66%)d 0.00(  0.04%)
                                         0.0000 -0.4827 -0.0047  0.1440  0.0091
                                        -0.5657  0.0026  0.6525 -0.0067  0.0030
                                        -0.0033  0.0164  0.0068 -0.0068
               ( 61.34%)  -0.7832* H  8 s( 99.91%)p 0.00(  0.09%)
                                        -0.9996  0.0008 -0.0056  0.0194 -0.0222
  31. (0.00984) BD*( 1) C  1- H  9
               ( 39.03%)   0.6248* C  1 s( 23.18%)p 3.31( 76.79%)d 0.00(  0.04%)
                                         0.0000 -0.4814  0.0022  0.1867  0.0141
                                        -0.4091 -0.0061 -0.7519  0.0052  0.0030
                                         0.0053 -0.0134  0.0028 -0.0123
               ( 60.97%)  -0.7808* H  9 s( 99.91%)p 0.00(  0.09%)
                                        -0.9995  0.0022 -0.0080  0.0149  0.0255
  32. (0.00991) BD*( 1) C  1- H 10
               ( 38.89%)   0.6236* C  1 s( 23.29%)p 3.29( 76.67%)d 0.00(  0.04%)
                                         0.0000 -0.4826  0.0024  0.5674  0.0122
                                         0.6605 -0.0099  0.0906  0.0027 -0.0161
                                        -0.0021 -0.0025  0.0034  0.0095
               ( 61.11%)  -0.7817* H 10 s( 99.91%)p 0.00(  0.09%)
                                        -0.9995  0.0022 -0.0205 -0.0221 -0.0029
  33. (0.03095) BD*( 1) C  2- C  3
               ( 50.38%)   0.7098* C  2 s( 28.75%)p 2.48( 71.22%)d 0.00(  0.04%)
                                         0.0000 -0.5361 -0.0055 -0.1549 -0.0153
                                         0.5413 -0.0016 -0.6285 -0.0003  0.0032
                                        -0.0035  0.0160  0.0058 -0.0071
               ( 49.62%)  -0.7044* C  3 s( 32.85%)p 2.04( 67.12%)d 0.00(  0.03%)
                                         0.0000 -0.5730 -0.0091  0.1436 -0.0125
                                        -0.5303 -0.0119  0.6071 -0.0219  0.0028
                                        -0.0033  0.0122  0.0067 -0.0100
  34. (0.01846) BD*( 1) C  2- H 11
               ( 38.43%)   0.6199* C  2 s( 21.54%)p 3.64( 78.42%)d 0.00(  0.04%)
                                         0.0000 -0.4641  0.0046 -0.5550  0.0001
                                        -0.6873  0.0095 -0.0595  0.0144 -0.0158
                                        -0.0027 -0.0032  0.0033  0.0092
               ( 61.57%)  -0.7846* H 11 s( 99.90%)p 0.00(  0.10%)
                                        -0.9995  0.0042  0.0210  0.0235  0.0009
  35. (0.01684) BD*( 1) C  2- H 12
               ( 38.27%)   0.6186* C  2 s( 21.85%)p 3.58( 78.12%)d 0.00(  0.03%)
                                         0.0000 -0.4673  0.0071 -0.1728 -0.0093
                                         0.3876 -0.0171  0.7751 -0.0013  0.0032
                                         0.0047 -0.0134  0.0033 -0.0108
               ( 61.73%)  -0.7857* H 12 s( 99.89%)p 0.00(  0.11%)
                                        -0.9995  0.0040  0.0084 -0.0136 -0.0286
  36. (0.03398) BD*( 1) C  3- C  4
               ( 49.74%)   0.7053* C  3 s( 21.45%)p 3.66( 78.48%)d 0.00(  0.07%)
                                         0.0000 -0.4631 -0.0095  0.4939  0.0044
                                         0.7305  0.0026  0.0839 -0.0132 -0.0077
                                        -0.0002 -0.0063  0.0207  0.0127
               ( 50.26%)  -0.7089* C  4 s( 23.24%)p 3.30( 76.68%)d 0.00(  0.08%)
                                         0.0000 -0.4821 -0.0033  0.2418  0.0067
                                        -0.8387  0.0116 -0.0696  0.0014 -0.0090
                                         0.0011 -0.0035  0.0220  0.0133
  37. (0.04196) BD*( 1) C  3- N  5
               ( 59.99%)   0.7745* C  3 s( 18.62%)p 4.36( 81.22%)d 0.01(  0.16%)
                                         0.0000  0.4314  0.0103  0.8496  0.0070
                                        -0.2954  0.0051 -0.0523 -0.0177 -0.0325
                                        -0.0046  0.0043  0.0083 -0.0208
               ( 40.01%)  -0.6326* N  5 s( 21.79%)p 3.58( 78.08%)d 0.01(  0.13%)
                                         0.0000  0.4668  0.0016 -0.4224 -0.0123
                                         0.7705 -0.0181  0.0897  0.0122 -0.0259
                                        -0.0087  0.0170  0.0083 -0.0127
  38. (0.03491) BD*( 1) C  3- H 13
               ( 38.66%)   0.6218* C  3 s( 27.10%)p 2.69( 72.87%)d 0.00(  0.03%)
                                         0.0000 -0.5202  0.0191  0.1072  0.0075
                                        -0.3111 -0.0087 -0.7875  0.0127  0.0007
                                         0.0024 -0.0062  0.0012 -0.0163
               ( 61.34%)  -0.7832* H 13 s( 99.89%)p 0.00(  0.11%)
                                        -0.9994  0.0093 -0.0056  0.0116  0.0309
  39. (0.03006) BD*( 1) C  4- N  5
               ( 60.05%)   0.7749* C  4 s( 18.78%)p 4.32( 81.05%)d 0.01(  0.17%)
                                         0.0000  0.4334  0.0010  0.8992  0.0169
                                         0.0121 -0.0094 -0.0236 -0.0295  0.0232
                                         0.0017 -0.0002  0.0254 -0.0219
               ( 39.95%)  -0.6320* N  5 s( 20.06%)p 3.98( 79.81%)d 0.01(  0.13%)
                                         0.0000  0.4479  0.0046 -0.6429 -0.0084
                                        -0.6171  0.0229 -0.0545  0.0197  0.0185
                                        -0.0096 -0.0123  0.0194 -0.0174
  40. (0.02134) BD*( 1) C  4- H 14
               ( 38.80%)   0.6229* C  4 s( 28.78%)p 2.47( 71.18%)d 0.00(  0.03%)
                                         0.0000 -0.5365 -0.0036  0.2725  0.0004
                                         0.3265  0.0159  0.7283 -0.0155 -0.0019
                                        -0.0069 -0.0070  0.0020 -0.0154
               ( 61.20%)  -0.7823* H 14 s( 99.90%)p 0.00(  0.10%)
                                        -0.9995  0.0047 -0.0099 -0.0126 -0.0274
  41. (0.02261) BD*( 1) C  4- H 15
               ( 39.20%)   0.6261* C  4 s( 29.08%)p 2.44( 70.88%)d 0.00(  0.04%)
                                         0.0000 -0.5392  0.0069  0.2363  0.0188
                                         0.4347  0.0129 -0.6805  0.0211 -0.0023
                                         0.0056  0.0118  0.0025 -0.0142
               ( 60.80%)  -0.7798* H 15 s( 99.90%)p 0.00(  0.10%)
                                        -0.9995  0.0067 -0.0108 -0.0158  0.0247
  42. (0.02625) BD*( 1) N  5- C  6
               ( 38.75%)   0.6225* N  5 s( 30.66%)p 2.26( 69.26%)d 0.00(  0.08%)
                                         0.0000 -0.5537 -0.0035 -0.4754  0.0252
                                         0.1520 -0.0093 -0.6653 -0.0094  0.0009
                                        -0.0115  0.0061  0.0004 -0.0245
               ( 61.25%)  -0.7826* C  6 s( 24.03%)p 3.16( 75.86%)d 0.00(  0.12%)
                                         0.0000 -0.4900 -0.0113  0.4847 -0.0024
                                        -0.1518  0.0129  0.7067  0.0324  0.0054
                                        -0.0265  0.0091 -0.0078 -0.0171
  43. (0.01195) BD*( 1) C  6- C  7
               ( 49.64%)   0.7045* C  6 s( 29.15%)p 2.43( 70.81%)d 0.00(  0.04%)
                                         0.0000 -0.5397 -0.0130 -0.6135 -0.0091
                                        -0.5708  0.0087 -0.0758 -0.0083 -0.0169
                                        -0.0010 -0.0008  0.0002  0.0094
               ( 50.36%)  -0.7097* C  7 s( 29.99%)p 2.33( 69.98%)d 0.00(  0.04%)
                                         0.0000 -0.5475 -0.0076  0.6106  0.0000
                                         0.5670  0.0077  0.0733 -0.0057 -0.0163
                                        -0.0021 -0.0018 -0.0015  0.0093
  44. (0.02002) BD*( 1) C  6- H 16
               ( 38.66%)   0.6218* C  6 s( 23.01%)p 3.34( 76.95%)d 0.00(  0.04%)
                                         0.0000 -0.4797 -0.0006 -0.3375  0.0108
                                         0.8063 -0.0087  0.0729 -0.0044  0.0113
                                         0.0025 -0.0038  0.0116  0.0101
               ( 61.34%)  -0.7832* H 16 s( 99.89%)p 0.00(  0.11%)
                                        -0.9994  0.0046  0.0129 -0.0311 -0.0023
  45. (0.03585) BD*( 1) C  6- H 17
               ( 39.80%)   0.6309* C  6 s( 23.84%)p 3.19( 76.12%)d 0.00(  0.04%)
                                         0.0000 -0.4879  0.0182  0.5227 -0.0181
                                        -0.0078  0.0167 -0.6981 -0.0036  0.0003
                                         0.0171 -0.0011 -0.0059 -0.0093
               ( 60.20%)  -0.7759* H 17 s( 99.90%)p 0.00(  0.10%)
                                        -0.9994  0.0111 -0.0165 -0.0007  0.0274
  46. (0.00997) BD*( 1) C  7- H 18
               ( 38.51%)   0.6205* C  7 s( 23.50%)p 3.25( 76.47%)d 0.00(  0.04%)
                                         0.0000 -0.4847  0.0029 -0.5228 -0.0052
                                         0.0046 -0.0087  0.7009 -0.0067  0.0006
                                         0.0153 -0.0012 -0.0055 -0.0095
               ( 61.49%)  -0.7842* H 18 s( 99.90%)p 0.00(  0.10%)
                                        -0.9995  0.0031  0.0180  0.0003 -0.0250
  47. (0.00555) BD*( 1) C  7- H 19
               ( 38.81%)   0.6230* C  7 s( 23.23%)p 3.30( 76.73%)d 0.00(  0.04%)
                                         0.0000 -0.4820 -0.0002 -0.4958 -0.0048
                                         0.1599 -0.0098 -0.7041  0.0051  0.0040
                                        -0.0148  0.0065 -0.0035 -0.0100
               ( 61.19%)  -0.7823* H 19 s( 99.91%)p 0.00(  0.09%)
                                        -0.9995  0.0006  0.0177 -0.0045  0.0240
  48. (0.00962) BD*( 1) C  7- H 20
               ( 39.02%)   0.6247* C  7 s( 23.28%)p 3.29( 76.69%)d 0.00(  0.04%)
                                         0.0000 -0.4824  0.0035  0.3276 -0.0151
                                        -0.8076 -0.0046 -0.0840 -0.0019  0.0122
                                         0.0010 -0.0033  0.0103  0.0094
               ( 60.98%)  -0.7809* H 20 s( 99.90%)p 0.00(  0.10%)
                                        -0.9995  0.0017 -0.0101  0.0293  0.0026
  49. (0.00317) RY ( 1) C  1            s(  9.49%)p 8.68( 82.36%)d 0.86(  8.15%)
                                         0.0000  0.0133  0.3077  0.0034  0.0928
                                        -0.0130 -0.6129  0.0139  0.6626 -0.1457
                                         0.1818 -0.1269 -0.1042  0.0156
  50. (0.00139) RY ( 2) C  1            s(  0.01%)p99.99( 74.66%)d99.99( 25.33%)
                                         0.0000 -0.0006  0.0109 -0.0031 -0.2371
                                        -0.0083 -0.6222 -0.0071 -0.5505 -0.3289
                                        -0.2788  0.1368 -0.1989  0.0954
  51. (0.00039) RY ( 3) C  1            s( 12.32%)p 6.97( 85.88%)d 0.15(  1.80%)
                                         0.0000  0.0125  0.3508 -0.0144  0.8797
                                         0.0049 -0.0548  0.0010 -0.2858  0.0167
                                        -0.0938  0.0605  0.0576 -0.0438
  52. (0.00014) RY ( 4) C  1            s( 56.60%)p 0.26( 14.48%)d 0.51( 28.92%)
                                         0.0000 -0.0070  0.7523  0.0033 -0.3529
                                         0.0022  0.1334 -0.0045  0.0494  0.1947
                                        -0.3947  0.1874  0.2371 -0.0651
  53. (0.00002) RY ( 5) C  1            s(  4.55%)p 0.68(  3.11%)d20.29( 92.34%)
  54. (0.00002) RY ( 6) C  1            s(  2.09%)p 8.10( 16.90%)d38.82( 81.02%)
  55. (0.00001) RY ( 7) C  1            s( 11.69%)p 1.29( 15.10%)d 6.26( 73.20%)
  56. (0.00000) RY ( 8) C  1            s(  0.01%)p 1.00(  2.27%)d43.12( 97.73%)
  57. (0.00000) RY ( 9) C  1            s(  3.29%)p 1.63(  5.35%)d27.81( 91.37%)
  58. (0.00505) RY ( 1) C  2            s(  1.59%)p59.08( 93.65%)d 3.01(  4.76%)
                                         0.0000  0.0032  0.1259 -0.0090 -0.0024
                                        -0.0191 -0.8501 -0.0152 -0.4617  0.1330
                                         0.0317 -0.0681 -0.0169 -0.1550
  59. (0.00325) RY ( 2) C  2            s(  0.56%)p99.99( 92.04%)d13.32(  7.40%)
                                         0.0000 -0.0121  0.0736 -0.0017  0.9517
                                         0.0133  0.0386 -0.0029 -0.1142 -0.2154
                                         0.1546  0.0088  0.0598  0.0086
  60. (0.00110) RY ( 3) C  2            s( 24.46%)p 1.99( 48.76%)d 1.10( 26.79%)
                                         0.0000 -0.0116  0.4944  0.0169 -0.2282
                                        -0.0038  0.3717 -0.0068 -0.5450 -0.2287
                                         0.3920 -0.2412 -0.0596 -0.0140
  61. (0.00087) RY ( 4) C  2            s( 51.67%)p 0.67( 34.67%)d 0.26( 13.66%)
                                         0.0000  0.0083  0.7188  0.0060 -0.0165
                                         0.0072 -0.2100 -0.0068  0.5497 -0.2751
                                        -0.1068  0.0537 -0.1349 -0.1687
  62. (0.00028) RY ( 5) C  2            s(  1.98%)p 3.25(  6.43%)d46.27( 91.59%)
                                         0.0000  0.0039  0.1406  0.0029 -0.0308
                                        -0.0061 -0.0544 -0.0037  0.2456  0.3485
                                         0.5239  0.0218  0.7208  0.0009
  63. (0.00017) RY ( 6) C  2            s(  0.01%)p 1.00(  8.99%)d10.13( 91.01%)
                                         0.0000 -0.0049  0.0068  0.0162 -0.0645
                                        -0.0152  0.1439  0.0121 -0.2537 -0.2371
                                        -0.3208  0.5020  0.4265 -0.5631
  64. (0.00008) RY ( 7) C  2            s( 12.49%)p 0.38(  4.69%)d 6.63( 82.82%)
  65. (0.00001) RY ( 8) C  2            s(  4.66%)p 1.43(  6.67%)d19.01( 88.67%)
  66. (0.00001) RY ( 9) C  2            s(  2.62%)p 1.61(  4.22%)d35.56( 93.16%)
  67. (0.00600) RY ( 1) C  3            s( 56.43%)p 0.40( 22.31%)d 0.38( 21.27%)
                                         0.0000 -0.0088  0.7511  0.0053  0.1787
                                         0.0096 -0.1117  0.0347  0.4211 -0.1562
                                         0.2032 -0.2414 -0.2785 -0.1055
  68. (0.00496) RY ( 2) C  3            s(  0.46%)p99.99( 90.23%)d20.30(  9.31%)
                                         0.0000  0.0061  0.0675 -0.0110  0.3302
                                         0.0077 -0.7510 -0.0077 -0.4785 -0.1323
                                        -0.0607  0.1484 -0.1789  0.1339
  69. (0.00348) RY ( 3) C  3            s(  7.56%)p10.81( 81.70%)d 1.42( 10.74%)
                                         0.0000  0.0013  0.2750 -0.0116 -0.8365
                                         0.0129 -0.0878 -0.0118 -0.3304 -0.2784
                                         0.1348  0.0649 -0.0322 -0.0803
  70. (0.00125) RY ( 4) C  3            s( 14.76%)p 5.24( 77.35%)d 0.53(  7.89%)
                                         0.0000 -0.0070  0.3842 -0.0188  0.3263
                                         0.0019  0.5714 -0.0028 -0.5832  0.0407
                                         0.1327  0.2417  0.0109 -0.0326
  71. (0.00063) RY ( 5) C  3            s(  1.47%)p 2.38(  3.48%)d64.81( 95.05%)
                                         0.0000 -0.0072  0.1209 -0.0087 -0.0095
                                         0.0186  0.0488  0.0026  0.1787 -0.1769
                                        -0.7062  0.5087 -0.1430 -0.3758
  72. (0.00050) RY ( 6) C  3            s(  5.83%)p 0.90(  5.27%)d15.24( 88.90%)
                                         0.0000  0.0043  0.2415 -0.0145  0.0586
[...]
  9 H                 0.0      -0.1      -0.0      -0.0      -0.0      -0.0
 11 H                -0.0      -0.0      -0.2      -0.0      -0.2      -0.0
 12 H                -0.1       0.1      -0.2      -0.1       0.1      -0.0
 13 H               -20.8      -5.4      -3.7      -3.8      -6.4      -3.2
 14 H                -5.6     -21.3      -1.6      -1.3      -2.2      -3.6

                     84        85        86        87        88        89   
                   0.00000   0.00000   0.00000   0.00000   0.00000   0.00000
                   0.00541   0.00222   0.00099   0.00074   0.00029   0.00016
                  --------  --------  --------  --------  --------  --------
  0 C                -0.1      -0.3      -0.3      -0.1       0.0      -0.0
  1 C                 0.2       1.0       0.8       0.4      -0.2       0.0
  2 C                -5.5     -11.4     -14.4     -11.6      -0.3      -1.0
  3 C                -0.9     -16.3      -5.4      -4.9      -0.5      -0.0
  4 N               116.3     133.7     127.3     139.6     103.0     105.9
  5 C                -9.3      -4.7      -7.1     -23.6      -1.9      -5.2
  6 C                -0.1      -0.9      -0.9      -0.0      -0.1       0.4
 11 H                -0.3      -0.2       0.0      -0.3       0.0      -0.0
 12 H                -0.1      -0.4      -0.1      -0.4       0.1      -0.1
 13 H                -0.0       0.3       0.3      -0.0      -0.1      -0.2
 14 H                -0.0      -0.1      -0.2       0.1      -0.0      -0.0
 15 H                 0.1       0.0      -0.2       1.0       0.0       0.0
 16 H                -0.1      -0.5       0.2      -0.1      -0.1       0.1
 17 H                -0.2      -0.0       0.0      -0.0      -0.0       0.0
 18 H                -0.1      -0.1      -0.1      -0.1      -0.0      -0.0

                     90        91        92        93        94        95   
                   0.00000   0.00000   0.00000   0.00000   0.00000   0.00000
                   0.00007   0.00005   0.00002   0.00451   0.00280   0.00151
                  --------  --------  --------  --------  --------  --------
  0 C                -0.1      -0.1      -0.0      -0.1      -0.0      -0.1
  1 C                 0.4      -0.3      -0.2      -0.3       0.0       0.0
  2 C                -1.7      -4.0      -1.6      -8.5      -0.0      -8.4
  3 C                -2.2      -4.6      -1.0      -0.5      -8.9       0.3
  4 N               104.7     114.0     105.1      -3.9      -8.2     -21.3
  5 C                -0.9      -4.2      -2.0     146.0     146.5     156.0
  6 C                 0.1      -0.4      -0.0      -9.7      -1.2     -21.9
 12 H                -0.1      -0.3      -0.1      -0.1      -0.0      -0.3
 14 H                -0.2       0.1      -0.1       0.1      -0.1       0.0
 15 H                -0.1       0.1      -0.0      -7.6     -20.2      -1.8
 16 H                -0.0      -0.0       0.0     -15.7      -7.7      -2.5
 17 H                -0.0      -0.0      -0.0       0.2      -0.1      -0.3
 18 H                -0.0      -0.0      -0.0      -0.2       0.0      -0.2
 19 H                -0.0      -0.0      -0.0       0.3      -0.1       0.5

                     96        97        98        99       100       101   
                   0.00000   0.00000   0.00000   0.00000   0.00000   0.00000
                   0.00086   0.00037   0.00032   0.00020   0.00002   0.00002
                  --------  --------  --------  --------  --------  --------
  1 C                 0.1      -0.2       0.1      -0.2       0.0      -0.0
  2 C                 0.4      -0.3       0.1      -4.8      -0.0       0.1
  3 C                -4.6      -0.7       0.2       0.4      -0.0      -0.1
  4 N                -4.7      -2.1       0.2     -14.7      -1.6      -2.7
  5 C               161.5     111.2     104.8     169.8     116.6     125.8
  6 C               -45.6      -3.0      -1.3     -36.7      -3.6      -8.2
 13 H                -0.2       0.0      -0.0       0.0      -0.0      -0.0
 14 H                -0.4       0.0       0.1      -0.0       0.1       0.1
 15 H                -1.5      -0.6      -3.0      -6.0      -7.3     -12.0
 16 H                -5.2      -4.6      -1.3      -8.1      -4.1      -3.1
 17 H                 0.2       0.2      -0.0      -0.2      -0.1       0.0
 18 H                -0.1       0.2       0.2       0.5       0.2       0.1
 19 H                 0.2      -0.2      -0.1       0.1      -0.0       0.0

                    102       103       104       105       106       107   
                   0.00000   0.00000   0.00000   0.00000   0.00000   0.00000
                   0.00307   0.00158   0.00047   0.00013   0.00011   0.00002
                  --------  --------  --------  --------  --------  --------
  2 C                -0.3       0.0       0.7       0.1       0.0      -0.0
  3 C                -0.3      -0.2      -1.1      -0.1      -0.2       0.0
  4 N                -2.3      -0.2       0.8      -0.0      -0.1      -0.1
  5 C               -17.8      -7.7     -78.6      -9.6      -7.8      -1.5
  6 C               143.3     130.1     183.0     150.8     142.5     108.4
 15 H                -0.1      -0.0       0.3       0.0       0.2       0.0
 16 H                -0.0      -0.4       0.2      -0.0      -0.0      -0.0
 17 H                -3.8     -12.6      -0.4      -9.0     -12.6      -0.8
 18 H                -7.9      -1.5      -4.8     -13.7     -14.2      -1.4
 19 H               -10.6      -7.4      -0.1     -18.5      -7.7      -4.7

                    108       109       110       111       112       113   
                   0.00000   0.00000   0.00000   0.00000   0.00000   0.00000
                   0.00001   0.00000   0.00000   0.00147   0.00016   0.00012
                  --------  --------  --------  --------  --------  --------
  0 C                 0.0      -0.0      -0.0     -34.7      -2.9      -3.2
  1 C                -0.0      -0.0      -0.0       0.5      -0.2      -0.1
  2 C                 0.0      -0.0      -0.0      -0.4      -0.0      -0.1
  5 C                -2.5      -2.1      -2.1      -0.0      -0.0      -0.0
  6 C               119.1     111.0     109.1      -0.0      -0.0      -0.0
  7 H                -0.0      -0.0      -0.0     135.9     103.9     104.2
  8 H                -0.0       0.0      -0.0      -0.3      -0.3      -0.4
  9 H                -0.0      -0.0      -0.0      -0.3      -0.3      -0.4
 10 H                -0.0      -0.0      -0.0      -0.3      -0.0      -0.0
 11 H                -0.0      -0.0      -0.0      -0.3      -0.0      -0.0
 15 H                -0.0      -0.1       0.1      -0.0      -0.0      -0.0
 16 H                 0.2       0.1       0.0      -0.0      -0.0      -0.0
 17 H                -9.1      -2.7      -2.8      -0.0      -0.0      -0.0
 18 H                -5.6      -3.1      -2.0      -0.0      -0.0      -0.0
 19 H                -2.0      -3.0      -2.1      -0.0      -0.0      -0.0

                    114       115       116       117       118       119   
                   0.00000   0.00000   0.00000   0.00000   0.00000   0.00000
                   0.00002   0.00193   0.00016   0.00012   0.00002   0.00190
                  --------  --------  --------  --------  --------  --------
  0 C                -8.0     -33.8      -3.0      -3.3      -7.9     -35.4
  1 C                -0.2       0.5      -0.1      -0.1      -0.1       0.7
  2 C                -0.1      -0.2      -0.1      -0.0      -0.0      -0.1
  3 C                -0.0      -0.0      -0.0      -0.0      -0.0      -0.7
  7 H               108.6      -0.2      -0.3      -0.4      -0.1      -0.3
  8 H                -0.1     135.9     104.1     104.3     108.3      -0.4
  9 H                -0.1      -0.4      -0.4      -0.4      -0.1     137.0
 10 H                -0.0      -0.3      -0.0      -0.0      -0.0       0.0
 11 H                -0.0       0.0      -0.1      -0.0      -0.0      -0.2
 12 H                -0.0      -1.4      -0.0      -0.0      -0.1      -0.0
 13 H                 0.0      -0.0      -0.0      -0.0      -0.0      -0.4

                    120       121       122       123       124       125   
                   0.00000   0.00000   0.00000   0.00000   0.00000   0.00000
                   0.00017   0.00011   0.00003   0.00308   0.00014   0.00012
                  --------  --------  --------  --------  --------  --------
  0 C                -2.9      -3.3      -7.8       0.4      -0.1      -0.4
  1 C                -0.1      -0.1      -0.1     -33.4      -3.4      -2.8
  2 C                -0.1       0.0      -0.0       0.0      -0.1      -0.4
  7 H                -0.3      -0.4      -0.1      -0.3      -0.0      -0.0
  8 H                -0.4      -0.4      -0.1      -0.3      -0.1      -0.0
  9 H               104.0     104.3     108.3      -0.0      -0.0      -0.0
 10 H                -0.1      -0.0      -0.0     135.0     104.3     104.3
 11 H                -0.0      -0.0      -0.0      -0.4      -0.5      -0.5
 12 H                -0.0      -0.0      -0.0      -0.1      -0.0      -0.0
 19 H                -0.0      -0.0       0.0      -0.8      -0.0      -0.0

                    126       127       128       129       130       131   
                   0.00000   0.00000   0.00000   0.00000   0.00000   0.00000
                   0.00003   0.00325   0.00013   0.00009   0.00003   0.00425
                  --------  --------  --------  --------  --------  --------
  0 C                -0.1       0.0      -0.1      -0.2      -0.1       0.2
  1 C                -8.2     -36.9      -3.2      -2.8      -7.9      -0.9
  2 C                -0.1       3.2      -0.2      -0.3      -0.2     -35.0
  3 C                -0.0      -1.7      -0.0      -0.1      -0.0       0.6
  4 N                -0.0      -0.6      -0.0      -0.1      -0.0      -0.4
  5 C                -0.0      -0.0      -0.0      -0.0      -0.0      -0.6
  7 H                -0.0      -0.3      -0.0      -0.0      -0.0      -0.0
  8 H                -0.0      -0.0      -0.0      -0.0      -0.0      -1.4
  9 H                -0.0      -0.2      -0.0      -0.0      -0.0      -0.0
 10 H               108.5      -0.4      -0.4      -0.5      -0.0      -0.1
 11 H                -0.0     138.0     104.2     104.1     108.3       0.0
 12 H                 0.0       0.0      -0.0      -0.1      -0.0     141.5
 13 H                -0.0      -1.1      -0.0      -0.0      -0.0       0.0
 14 H                -0.0      -0.0      -0.0      -0.0      -0.0      -0.5
 16 H                -0.0       0.0      -0.0      -0.0      -0.0      -2.4
 19 H                -0.0      -0.0      -0.0      -0.0      -0.0      -0.9

                    132       133       134       135       136       137   
                   0.00000   0.00000   0.00000   0.00000   0.00000   0.00000
                   0.00017   0.00006   0.00002   0.00205   0.00014   0.00011
                  --------  --------  --------  --------  --------  --------
  0 C                -0.1      -0.0      -0.1       0.0      -0.0      -0.0
  1 C                -0.0      -0.3       0.1      -1.2      -0.0      -0.0
  2 C                -3.0      -8.2      -4.1       1.2      -0.0       0.1
  3 C                -0.4       0.2      -0.8     -42.5      -3.8      -4.9
  4 N                -0.2       0.0      -1.0       0.2      -0.1       0.0
  5 C                -0.1       0.0      -0.1      -0.1      -0.1      -0.0
  9 H                -0.0       0.0      -0.0      -0.5      -0.0      -0.0
 11 H                -0.1      -0.0      -0.0      -1.1      -0.0      -0.0
 12 H               104.1     108.4     106.1       0.0      -0.0      -0.0
 13 H                -0.0       0.0      -0.0     144.7     104.4     105.5
 14 H                 0.0      -0.0      -0.0      -0.8      -0.3      -0.6

                    138       139       140       141       142       143   
                   0.00000   0.00000   0.00000   0.00000   0.00000   0.00000
                   0.00002   0.00332   0.00020   0.00010   0.00001   0.00266
                  --------  --------  --------  --------  --------  --------
  2 C                -0.4       1.0      -0.4       0.1      -0.5      -0.3
  3 C                -5.9     -38.4      -3.1      -5.4      -5.5      -0.1
  4 N                -0.4      -0.2      -0.1      -0.0      -0.5       0.7
  5 C                -0.0      -0.4      -0.1      -0.0      -0.0     -36.4
  6 C                -0.0      -0.0      -0.0      -0.0      -0.0       0.1
 12 H                -0.0      -0.5      -0.0      -0.0       0.0       0.0
 13 H               106.8      -0.8      -0.2      -0.7      -0.1       0.0
 14 H                -0.1     141.6     103.9     106.2     106.5      -0.1
 15 H                -0.0      -0.1      -0.0      -0.0       0.0     137.0
 16 H                -0.0      -2.1      -0.0      -0.0      -0.0      -0.3
 17 H                -0.0      -0.0      -0.0      -0.0      -0.0      -0.3
 18 H                -0.0      -0.0      -0.0      -0.0      -0.0      -0.3

                    144       145       146       147       148       149   
                   0.00000   0.00000   0.00000   0.00000   0.00000   0.00000
                   0.00012   0.00009   0.00002   0.00558   0.00014   0.00009
                  --------  --------  --------  --------  --------  --------
  2 C                 0.0      -0.0       0.0      -0.3       0.0      -0.1
  3 C                -0.1      -0.2      -0.1      -0.2      -0.1       0.0
  4 N                -0.1      -0.1      -0.4      -0.2      -0.1      -0.1
  5 C                -4.0      -3.8      -6.8     -30.3      -3.3      -3.2
  6 C                 0.0      -0.4      -0.0       0.1      -0.1      -0.4
 12 H                -0.0      -0.0      -0.0      -2.5      -0.0      -0.0
 14 H                -0.0      -0.0      -0.0      -2.1      -0.0      -0.0
 15 H               104.8     105.0     107.4      -0.3      -0.6      -0.5
 16 H                -0.6      -0.5      -0.1     136.5     104.3     104.5
 18 H                -0.0      -0.0      -0.0      -0.3      -0.0      -0.1
 19 H                -0.0      -0.0      -0.0      -0.1      -0.1      -0.0

                    150       151       152       153       154       155   
                   0.00000   0.00000   0.00000   0.00000   0.00000   0.00000
                   0.00002   0.00297   0.00015   0.00011   0.00003   0.00152
                  --------  --------  --------  --------  --------  --------
  4 N                -0.3      -0.2      -0.0      -0.0      -0.0      -0.3
  5 C                -6.9      -0.0      -0.1      -0.1      -0.1       0.5
  6 C                -0.1     -34.2      -2.9      -3.3      -8.0     -34.0
 15 H                -0.0      -0.3      -0.0      -0.0      -0.0      -0.3
 16 H               107.5      -0.0      -0.1      -0.0      -0.0      -0.4
 17 H                -0.0     135.4     103.9     104.3     108.3      -0.2
 18 H                -0.0      -0.3      -0.3      -0.4      -0.1     135.0
 19 H                -0.0      -0.4      -0.3      -0.4      -0.1      -0.3

                    156       157       158       159       160       161   
                   0.00000   0.00000   0.00000   0.00000   0.00000   0.00000
                   0.00017   0.00013   0.00003   0.00165   0.00016   0.00012
                  --------  --------  --------  --------  --------  --------
  2 C                -0.0      -0.0      -0.0      -1.6      -0.0      -0.0
  5 C                -0.2      -0.1      -0.2       0.8      -0.1      -0.1
  6 C                -2.8      -3.2      -8.0     -36.4      -2.9      -3.2
 10 H                -0.0      -0.0      -0.0      -0.8      -0.0       0.0
 12 H                -0.0      -0.0      -0.0      -0.9      -0.0      -0.0
 16 H                -0.0      -0.1      -0.0      -0.2      -0.0      -0.1
 17 H                -0.3      -0.4      -0.1      -0.4      -0.3      -0.4
 18 H               103.9     104.2     108.6      -0.2      -0.3      -0.4
 19 H                -0.4      -0.3      -0.1     139.6     103.9     104.2

                    162   
                   0.00000
                   0.00002
                  --------
  6 C                -8.0
 17 H                -0.1
 18 H                -0.1
 19 H               108.7

Storing NBOs: 1964.nbo
                                    *** NBOs were stored ***

                                *** returned from GENNBO program ***

-------
TIMINGS
-------

Total SCF time: 0 days 0 hours 0 min 6 sec 

Total time                  ....       6.429 sec
Sum of individual times     ....       7.038 sec  (109.5%)

Fock matrix formation       ....       3.880 sec  ( 60.4%)
  Coulomb formation         ....       1.931 sec  ( 49.8% of F)
  Split-RI-J                ....       1.924 sec  ( 49.6% of F)
  XC integration            ....       1.944 sec  ( 50.1% of F)
    Basis function eval.    ....       0.627 sec  ( 32.2% of XC)
    Density eval.           ....       0.350 sec  ( 18.0% of XC)
    XC-Functional eval.     ....       0.100 sec  (  5.1% of XC)
    XC-Potential eval.      ....       0.775 sec  ( 39.9% of XC)
Diagonalization             ....       0.036 sec  (  0.6%)
Density matrix formation    ....       0.003 sec  (  0.0%)
Population analysis         ....       1.758 sec  ( 27.3%)
Initial guess               ....       0.464 sec  (  7.2%)
Orbital Transformation      ....       0.000 sec  (  0.0%)
Orbital Orthonormalization  ....       0.000 sec  (  0.0%)
DIIS solution               ....       0.009 sec  (  0.1%)
SOSCF solution              ....       0.009 sec  (  0.1%)
Grid generation             ....       0.879 sec  ( 13.7%)
           ************************************************************
           *              Shut down parallel processing               *
           ************************************************************

-------------------------   --------------------
FINAL SINGLE POINT ENERGY      -290.565004237848
-------------------------   --------------------


                            ***************************************
                            *     ORCA property calculations      *
                            ***************************************

                                    ---------------------
                                    Active property flags
                                    ---------------------
   (+) Dipole Moment


------------------------------------------------------------------------------
                       ORCA ELECTRIC PROPERTIES CALCULATION
------------------------------------------------------------------------------

Dipole Moment Calculation                       ... on
Quadrupole Moment Calculation                   ... off
Polarizability Calculation                      ... off
GBWName                                         ... 1964.gbw
Electron density file                           ... 1964.scfp.tmp

-------------
DIPOLE MOMENT
-------------
                                X             Y             Z
Electronic contribution:      0.57177      -2.53964      -0.81256
Nuclear contribution   :     -0.76186       2.59377       1.12001
                        -----------------------------------------
Total Dipole Moment    :     -0.19009       0.05412       0.30745
                        -----------------------------------------
Magnitude (a.u.)       :      0.36550
Magnitude (Debye)      :      0.92903


Timings for individual modules:

Sum of individual times         ...        7.705 sec (=   0.128 min)
GTO integral calculation        ...        0.482 sec (=   0.008 min)   6.3 %
SCF iterations                  ...        7.223 sec (=   0.120 min)  93.7 %
                             ****ORCA TERMINATED NORMALLY****
TOTAL RUN TIME: 0 days 0 hours 0 minutes 8 seconds 108 msec
