
                                 *****************
                                 * O   R   C   A *
                                 *****************

           --- An Ab Initio, DFT and Semiempirical electronic structure package ---

                  #######################################################
                  #                        -***-                        #
                  #  Department of molecular theory and spectroscopy    #
                  #              Directorship: Frank Neese              #
                  # Max Planck Institute for Chemical Energy Conversion #
                  #                  D-45470 Muelheim/Ruhr              #
                  #                       Germany                       #
                  #                                                     #
                  #                  All rights reserved                #
                  #                        -***-                        #
                  #######################################################


                         Program Version 3.0.3 - RELEASE   -


 With contributions from (in alphabetic order):
   Ute Becker             : Parallelization
   Dmytro Bykov           : SCF Hessian
   Dmitry Ganyushin       : Spin-Orbit,Spin-Spin,Magnetic field MRCI
   Andreas Hansen         : Spin unrestricted coupled pair/coupled cluster methods
   Dimitrios Liakos       : Extrapolation schemes; parallel MDCI
   Robert Izsak           : Overlap fitted RIJCOSX, COSX-SCS-MP3
   Christian Kollmar      : KDIIS, OOCD, Brueckner-CCSD(T), CCSD density
   Simone Kossmann        : Meta GGA functionals, TD-DFT gradient, OOMP2, MP2 Hessian
   Taras Petrenko         : DFT Hessian,TD-DFT gradient, ASA and ECA modules, normal mode analysis, Resonance Raman, ABS, FL, XAS/XES, NRVS
   Christoph Reimann      : Effective Core Potentials
   Michael Roemelt        : Restricted open shell CIS
   Christoph Riplinger    : Improved optimizer, TS searches, QM/MM, DLPNO-CCSD
   Barbara Sandhoefer     : DKH picture change effects
   Igor Schapiro          : Molecular dynamics
   Kantharuban Sivalingam : CASSCF convergence, NEVPT2
   Boris Wezisla          : Elementary symmetry handling
   Frank Wennmohs         : Technical directorship


 We gratefully acknowledge several colleagues who have allowed us to
 interface, adapt or use parts of their codes:
   Stefan Grimme, W. Hujo, H. Kruse, T. Risthaus : VdW corrections, initial TS optimization,
                                                   DFT functionals, gCP
   Ed Valeev                                     : LibInt (2-el integral package), F12 methods
   Garnet Chan, S. Sharma, R. Olivares           : DMRG
   Ulf Ekstrom                                   : XCFun DFT Library
   Mihaly Kallay                                 : mrcc  (arbitrary order and MRCC methods)
   Andreas Klamt, Michael Diedenhofen            : otool_cosmo (COSMO solvation model)
   Frank Weinhold                                : gennbo (NPA and NBO analysis)
   Christopher J. Cramer and Donald G. Truhlar   : smd solvation model


 Your calculation uses the libint2 library for the computation of 2-el integrals
 For citations please refer to: http://libint.valeyev.net

 This ORCA versions uses:
   CBLAS   interface :  Fast vector & matrix operations
   LAPACKE interface :  Fast linear algebra routines
   SCALAPACK package :  Parallel linear algebra routines


Your calculation utilizes the basis: Ahlrichs-VDZ
Cite in your paper:
H - Kr: A. Schaefer, H. Horn and R. Ahlrichs, J. Chem. Phys. 97, 2571 (1992).

Your calculation utilizes the basis: Ahlrichs SVPalls1+f
Cite in your paper:
Rb - Xe: A. Schaefer, C. Huber and R. Ahlrichs, J. Chem. Phys. 100, 5829 (1994).

================================================================================
                                        WARNINGS
                       Please study these warnings very carefully!
================================================================================
Now building the actual basis set


INFO   : the flag for use of LIBINT has been found!

================================================================================
                                       INPUT FILE
================================================================================
NAME = 1971.inp
|  1> ! RI PBE def2-SVP def2-SVP/J NBO PAL2
|  2> % maxcore 2000
|  3> % output
|  4>     # printlevel mini
|  5>     print[ P_Basis ] 0
|  6>     print[ P_SCFInfo ] 1
|  7>     print[ P_SCFIterInfo ] 1
|  8>     print[ P_OrbEn ] 0
|  9>     print[ P_Cartesian ] 0
| 10> end
| 11> *xyz 0 1
| 12>  C        2.8228950000     1.3138790000     0.1266270000 
| 13>  C        2.3451260000    -0.1246270000    -0.0060030000 
| 14>  C        2.9379620000    -1.0333140000     1.0334760000 
| 15>  C        3.0929000000    -2.5255400000     0.8014940000 
| 16>  N        2.7019830000    -3.2076580000    -0.3950900000 
| 17>  C        4.2991020000    -1.6557080000     0.8282170000 
| 18>  N        5.2879860000    -1.8088730000     1.8536590000 
| 19>  H        2.3782960000     1.9559920000    -0.6375990000 
| 20>  H        3.9097700000     1.3750530000     0.0261020000 
| 21>  H        2.5580930000     1.7283080000     1.1032750000 
| 22>  H        2.5945130000    -0.5017640000    -1.0033720000 
| 23>  H        1.2504710000    -0.1537720000     0.0585190000 
| 24>  H        2.7110030000    -0.7618510000     2.0624230000 
| 25>  H        2.9552240000    -3.1312980000     1.6950850000 
| 26>  H        3.2429020000    -2.9126760000    -1.1946970000 
| 27>  H        1.7220170000    -3.0721630000    -0.6070300000 
| 28>  H        4.7308530000    -1.4608090000    -0.1533200000 
| 29>  H        4.9469670000    -2.3878220000     2.6086540000 
| 30>  H        5.5554570000    -0.9146470000     2.2453190000 
| 31> *
| 32> 
| 33>                          ****END OF INPUT****
================================================================================

                       ****************************
                       * Single Point Calculation *
                       ****************************

--------------------------------
INTERNAL COORDINATES (ANGSTROEM)
--------------------------------
 C      0   0   0   0.000000     0.000     0.000
 C      1   0   0   1.521563     0.000     0.000
 C      2   1   0   1.502559   112.803     0.000
 C      3   2   1   1.518078   121.939   205.588
 N      4   3   2   1.431752   124.622   359.941
 C      4   3   2   1.487362    60.341   109.034
 N      6   4   3   1.432788   120.668   115.225
 H      1   2   3   1.092712   111.520   180.088
 H      1   2   3   1.093227   110.920    59.796
 H      1   2   3   1.093487   111.108   300.209
 H      2   1   3   1.095067   109.480   237.949
 H      2   1   3   1.096942   109.471   122.436
 H      3   2   1   1.088088   114.899    60.166
 H      4   3   2   1.088302   114.126   214.470
 H      5   4   3   1.009445   112.116    64.733
 H      5   4   3   1.011737   112.069   302.696
 H      6   4   3   1.089867   114.184   255.014
 H      7   6   4   1.010690   111.284   346.818
 H      7   6   4   1.012215   111.399   226.448

---------------------------
INTERNAL COORDINATES (A.U.)
---------------------------
 C      0   0   0   0.000000     0.000     0.000
 C      1   0   0   2.875337     0.000     0.000
 C      2   1   0   2.839425   112.803     0.000
 C      3   2   1   2.868751   121.939   205.588
 N      4   3   2   2.705620   124.622   359.941
 C      4   3   2   2.810706    60.341   109.034
 N      6   4   3   2.707578   120.668   115.225
 H      1   2   3   2.064926   111.520   180.088
 H      1   2   3   2.065899   110.920    59.796
 H      1   2   3   2.066390   111.108   300.209
 H      2   1   3   2.069376   109.480   237.949
 H      2   1   3   2.072920   109.471   122.436
 H      3   2   1   2.056187   114.899    60.166
 H      4   3   2   2.056594   114.126   214.470
 H      5   4   3   1.907574   112.116    64.733
 H      5   4   3   1.911905   112.069   302.696
 H      6   4   3   2.059550   114.184   255.014
 H      7   6   4   1.909926   111.284   346.818
 H      7   6   4   1.912808   111.399   226.448



           ************************************************************
           *        Program running with 2 parallel MPI-processes     *
           *              working on a common directory               *
           ************************************************************
------------------------------------------------------------------------------
                           ORCA GTO INTEGRAL CALCULATION
                           -- RI-GTO INTEGRALS CHOSEN --
------------------------------------------------------------------------------

                         BASIS SET STATISTICS AND STARTUP INFO

Gaussian basis set:
 # of primitive gaussian shells          ...  144
 # of primitive gaussian functions       ...  252
 # of contracted shells                  ...   78
 # of contracted basis functions         ...  158
 Highest angular momentum                ...    2
 Maximum contraction depth               ...    5
Auxiliary gaussian basis set:
 # of primitive gaussian shells          ...  264
 # of primitive gaussian functions       ...  682
 # of contracted shells                  ...  165
 # of contracted aux-basis functions     ...  475
 Highest angular momentum                ...    4
 Maximum contraction depth               ...    7
Ratio of auxiliary to basis functions    ...  3.01
Integral package used                  ... LIBINT
 One Electron integrals                  ... done
 Ordering auxiliary basis shells         ... done
 Integral threshhold             Thresh  ...  1.000e-10
 Primitive cut-off               TCut    ...  1.000e-11
 Pre-screening matrix                    ... done
 Shell pair data                         ... 
 Ordering of the shell pairs             ... done (   0.000 sec) 2970 of 3081 pairs
 Determination of significant pairs      ... done (   0.000 sec)
 Creation of shell pair data             ... done (   0.000 sec)
 Storage of shell pair data              ... done (   0.001 sec)
 Shell pair data done in (   0.002 sec)
 Computing two index integrals           ... done
 Cholesky decomposition of the V-matrix  ... done


Timings:
 Total evaluation time                   ...   0.164 sec (  0.003 min)
 One electron matrix time                ...   0.023 sec (  0.000 min) = 14.1%
 Schwartz matrix evaluation time         ...   0.072 sec (  0.001 min) = 43.9%
 Two index repulsion integral time       ...   0.004 sec (  0.000 min) =  2.7%
 Cholesky decomposition of V             ...   0.004 sec (  0.000 min) =  2.6%
 Three index repulsion integral time     ...   0.000 sec (  0.000 min) =  0.0%

           ************************************************************
           *              Shut down parallel processing               *
           ************************************************************


           ************************************************************
           *        Program running with 2 parallel MPI-processes     *
           *              working on a common directory               *
           ************************************************************
-------------------------------------------------------------------------------
                                 ORCA SCF
-------------------------------------------------------------------------------

------------
SCF SETTINGS
------------
Hamiltonian:
 Density Functional     Method          .... DFT(GTOs)
 Exchange Functional    Exchange        .... PBE
   PBE kappa parameter  XKappa          ....  0.804000
 Correlation Functional Correlation     .... PBE
 LDA part of GGA corr.  LDAOpt          .... PW91-LDA
 Gradients option       PostSCFGGA      .... off
   NL short-range parameter             ....  6.400000
 RI-approximation to the Coulomb term is turned on
   Number of auxiliary basis functions  .... 475


General Settings:
 Integral files         IntName         .... 1971
 Hartree-Fock type      HFTyp           .... RHF
 Total Charge           Charge          ....    0
 Multiplicity           Mult            ....    1
 Number of Electrons    NEL             ....   56
 Basis Dimension        Dim             ....  158
 Nuclear Repulsion      ENuc            ....    319.8924423995 Eh

Convergence Acceleration:
 DIIS                   CNVDIIS         .... on
   Start iteration      DIISMaxIt       ....    12
   Startup error        DIISStart       ....  0.200000
   # of expansion vecs  DIISMaxEq       ....     5
   Bias factor          DIISBfac        ....   1.050
   Max. coefficient     DIISMaxC        ....  10.000
 Newton-Raphson         CNVNR           .... off
 SOSCF                  CNVSOSCF        .... on
   Start iteration      SOSCFMaxIt      ....   150
   Startup grad/error   SOSCFStart      ....  0.003300
 Level Shifting         CNVShift        .... on
   Level shift para.    LevelShift      ....    0.2500
   Turn off err/grad.   ShiftErr        ....    0.0010
 Zerner damping         CNVZerner       .... off
 Static damping         CNVDamp         .... on
   Fraction old density DampFac         ....    0.7000
   Max. Damping (<1)    DampMax         ....    0.9800
   Min. Damping (>=0)   DampMin         ....    0.0000
   Turn off err/grad.   DampErr         ....    0.1000
 Fernandez-Rico         CNVRico         .... off

SCF Procedure:
 Maximum # iterations   MaxIter         ....   125
 SCF integral mode      SCFMode         .... Direct
   Integral package                     .... LIBINT
 Reset frequeny         DirectResetFreq ....    20
 Integral Threshold     Thresh          ....  1.000e-10 Eh
 Primitive CutOff       TCut            ....  1.000e-11 Eh

Convergence Tolerance:
 Convergence Check Mode ConvCheckMode   .... Total+1el-Energy
 Energy Change          TolE            ....  1.000e-06 Eh
 1-El. energy change                    ....  1.000e-03 Eh
 Orbital Gradient       TolG            ....  5.000e-05
 Orbital Rotation angle TolX            ....  5.000e-05
 DIIS Error             TolErr          ....  1.000e-06


Diagonalization of the overlap matrix:
Smallest eigenvalue                        ... 1.046e-03
Time for diagonalization                   ...    0.016 sec
Threshold for overlap eigenvalues          ... 1.000e-08
Number of eigenvalues below threshold      ... 0
Time for construction of square roots      ...    0.003 sec
Total time needed                          ...    0.019 sec

-------------------
DFT GRID GENERATION
-------------------

General Integration Accuracy     IntAcc      ...  4.340
Radial Grid Type                 RadialGrid  ... Gauss-Chebyshev
Angular Grid (max. acc.)         AngularGrid ... Lebedev-110
Angular grid pruning method      GridPruning ... 3 (G Style)
Weight generation scheme         WeightScheme... Becke
Basis function cutoff            BFCut       ...    1.0000e-10
Integration weight cutoff        WCut        ...    1.0000e-14
Grids for H and He will be reduced by one unit

# of grid points (after initial pruning)     ...  21212 (   0.0 sec)
# of grid points (after weights+screening)   ...  19430 (   0.1 sec)
nearest neighbour list constructed           ...    0.0 sec
Grid point re-assignment to atoms done       ...    0.0 sec
Grid point division into batches done        ...    0.0 sec
Reduced shell lists constructed in    0.1 sec

Total number of grid points                  ...    19430
Total number of batches                      ...      311
Average number of points per batch           ...       62
Average number of grid points per atom       ...     1023
Average number of shells per batch           ...    58.48 (74.97%)
Average number of basis functions per batch  ...   114.58 (72.52%)
Average number of large shells per batch     ...    46.33 (79.23%)
Average number of large basis fcns per batch ...    89.06 (77.73%)
Maximum spatial batch extension              ...  22.44, 17.22, 19.41 au
Average spatial batch extension              ...   1.46,  1.39,  1.39 au

Time for grid setup =    0.166 sec

------------------------------
INITIAL GUESS: MODEL POTENTIAL
------------------------------
Loading Hartree-Fock densities                     ... done
Calculating cut-offs                               ... done
Setting up the integral package                    ... done
Initializing the effective Hamiltonian             ... done
Starting the Coulomb interaction                   ... done (   0.1 sec)
Reading the grid                                   ... done
Mapping shells                                     ... done
Starting the XC term evaluation                    ... done (   0.1 sec)
  promolecular density results
     # of electrons  =     55.989755100
     EX              =    -42.235929265
     EC              =     -1.839456275
     EX+EC           =    -44.075385540
Transforming the Hamiltonian                       ... done (   0.0 sec)
Diagonalizing the Hamiltonian                      ... done (   0.0 sec)
Back transforming the eigenvectors                 ... done (   0.0 sec)
Now organizing SCF variables                       ... done
                      ------------------
                      INITIAL GUESS DONE (   0.4 sec)
                      ------------------
--------------
SCF ITERATIONS
--------------
ITER       Energy         Delta-E        Max-DP      RMS-DP      [F,P]     Damp
               ***  Starting incremental Fock matrix formation  ***
  0   -306.3327541524   0.000000000000 0.08713545  0.00284672  0.2296117 0.7000
  1   -306.4596122465  -0.126858094113 0.04658822  0.00201781  0.0952509 0.7000
                               ***Turning on DIIS***
  2   -306.5022292726  -0.042617026055 0.07053590  0.00308200  0.0214379 0.0000
  3   -306.5656505030  -0.063421230464 0.03134047  0.00132922  0.0586770 0.0000
  4   -306.5855075249  -0.019857021863 0.01107627  0.00045195  0.0107238 0.0000
  5   -306.5865243814  -0.001016856478 0.00520855  0.00018459  0.0042885 0.0000
                      *** Initiating the SOSCF procedure ***
                           *** Shutting down DIIS ***
                      *** Re-Reading the Fockian *** 
                      *** Removing any level shift *** 
ITER      Energy       Delta-E        Grad      Rot      Max-DP    RMS-DP
  6   -306.58662452  -0.0001001355  0.000303  0.000303  0.003617  0.000113
               *** Restarting incremental Fock matrix formation ***
  7   -306.58663274  -0.0000082269  0.000090  0.000192  0.000815  0.000027
  8   -306.58663170   0.0000010448  0.000141  0.000141  0.000546  0.000017
  9   -306.58663342  -0.0000017180  0.000014  0.000035  0.000148  0.000004
 10   -306.58663339   0.0000000295  0.000025  0.000020  0.000077  0.000002
                 **** Energy Check signals convergence ****
              ***Rediagonalizing the Fockian in SOSCF/NRSCF***

               *****************************************************
               *                     SUCCESS                       *
               *           SCF CONVERGED AFTER  11 CYCLES          *
               *****************************************************

Setting up the final grid:

General Integration Accuracy     IntAcc      ...  4.670
Radial Grid Type                 RadialGrid  ... Gauss-Chebyshev
Angular Grid (max. acc.)         AngularGrid ... Lebedev-302
Angular grid pruning method      GridPruning ... 3 (G Style)
Weight generation scheme         WeightScheme... Becke
Basis function cutoff            BFCut       ...    1.0000e-10
Integration weight cutoff        WCut        ...    1.0000e-14
Grids for H and He will be reduced by one unit

# of grid points (after initial pruning)     ...  84212 (   0.0 sec)
# of grid points (after weights+screening)   ...  75882 (   0.1 sec)
nearest neighbour list constructed           ...    0.0 sec
Grid point re-assignment to atoms done       ...    0.0 sec
Grid point division into batches done        ...    0.2 sec
Reduced shell lists constructed in    0.5 sec

Total number of grid points                  ...    75882
Total number of batches                      ...     1196
Average number of points per batch           ...       63
Average number of grid points per atom       ...     3994
Average number of shells per batch           ...    54.61 (70.02%)
Average number of basis functions per batch  ...   106.28 (67.27%)
Average number of large shells per batch     ...    42.36 (77.57%)
Average number of large basis fcns per batch ...    80.54 (75.78%)
Maximum spatial batch extension              ...  17.25, 15.65, 20.08 au
Average spatial batch extension              ...   0.96,  0.91,  0.95 au

Final grid set up in    0.7 sec
Final integration                            ... done (   0.5 sec)
Change in XC energy                          ...     0.000330485
Integrated number of electrons               ...    55.999985426
Previous integrated no of electrons          ...    56.000639210

----------------
TOTAL SCF ENERGY
----------------

Total Energy       :         -306.58630294 Eh           -8342.63743 eV

Components:
Nuclear Repulsion  :          319.89244240 Eh            8704.71590 eV
Electronic Energy  :         -626.47874534 Eh          -17047.35333 eV

One Electron Energy:        -1047.45309029 Eh          -28502.64763 eV
Two Electron Energy:          420.97434495 Eh           11455.29430 eV

Virial components:
Potential Energy   :         -610.04529202 Eh          -16600.17633 eV
Kinetic Energy     :          303.45898908 Eh            8257.53890 eV
Virial Ratio       :            2.01030556


DFT components:
N(Alpha)           :       27.999992713008 electrons
N(Beta)            :       27.999992713008 electrons
N(Total)           :       55.999985426016 electrons
E(X)               :      -43.213608982917 Eh       
E(C)               :       -1.861233576491 Eh       
E(XC)              :      -45.074842559408 Eh       

---------------
SCF CONVERGENCE
---------------

  Last Energy change         ...   -4.1424e-08  Tolerance :   1.0000e-06
  Last MAX-Density change    ...    1.2092e-05  Tolerance :   1.0000e-05
  Last RMS-Density change    ...    4.8508e-07  Tolerance :   1.0000e-06
  Last Orbital Gradient      ...    1.4642e-06  Tolerance :   5.0000e-05
  Last Orbital Rotation      ...    2.6985e-06  Tolerance :   5.0000e-05

             **** THE GBW FILE WAS UPDATED (1971.gbw) ****
             **** DENSITY FILE WAS UPDATED (1971.scfp.tmp) ****
             **** ENERGY FILE WAS UPDATED (1971.en.tmp) ****

                    ********************************
                    * MULLIKEN POPULATION ANALYSIS *
                    ********************************

-----------------------
MULLIKEN ATOMIC CHARGES
-----------------------
   0 C :   -0.017768
   1 C :    0.059318
   2 C :   -0.073705
   3 C :   -0.048807
   4 N :   -0.118621
   5 C :   -0.079399
   6 N :   -0.112948
   7 H :    0.018601
   8 H :    0.020391
   9 H :    0.014344
  10 H :   -0.032293
  11 H :    0.013758
  12 H :   -0.013689
  13 H :    0.009060
  14 H :    0.084616
  15 H :    0.095868
  16 H :    0.009884
  17 H :    0.080742
  18 H :    0.090649
Sum of atomic charges:   -0.0000000

--------------------------------
MULLIKEN REDUCED ORBITAL CHARGES
--------------------------------
  0 C s       :     2.992783  s :     2.992783
      pz      :     1.003157  p :     2.998863
      px      :     1.011662
      py      :     0.984043
      dz2     :     0.005085  d :     0.026121
      dxz     :     0.002048
      dyz     :     0.007463
      dx2y2   :     0.007286
      dxy     :     0.004239
  1 C s       :     2.965907  s :     2.965907
      pz      :     0.985323  p :     2.939575
      px      :     0.990572
      py      :     0.963680
      dz2     :     0.007944  d :     0.035201
      dxz     :     0.003086
      dyz     :     0.008318
      dx2y2   :     0.010553
      dxy     :     0.005300
  2 C s       :     3.120526  s :     3.120526
      pz      :     0.964734  p :     2.912981
      px      :     1.006819
      py      :     0.941428
      dz2     :     0.009326  d :     0.040198
      dxz     :     0.004519
      dyz     :     0.006210
      dx2y2   :     0.010781
      dxy     :     0.009362
  3 C s       :     3.105524  s :     3.105524
      pz      :     0.962614  p :     2.884084
      px      :     1.030039
      py      :     0.891431
      dz2     :     0.013526  d :     0.059199
      dxz     :     0.007154
      dyz     :     0.015950
      dx2y2   :     0.012546
      dxy     :     0.010023
  4 N s       :     3.341331  s :     3.341331
      pz      :     1.035437  p :     3.759070
      px      :     1.050271
      py      :     1.673362
      dz2     :     0.003408  d :     0.018220
      dxz     :     0.003780
      dyz     :     0.005136
      dx2y2   :     0.003414
      dxy     :     0.002483
  5 C s       :     3.140114  s :     3.140114
      pz      :     0.997159  p :     2.879807
      px      :     0.830138
      py      :     1.052510
      dz2     :     0.014769  d :     0.059479
      dxz     :     0.013324
      dyz     :     0.005073
      dx2y2   :     0.012802
      dxy     :     0.013511
  6 N s       :     3.347064  s :     3.347064
      pz      :     1.115984  p :     3.747438
      px      :     1.468815
      py      :     1.162638
      dz2     :     0.002353  d :     0.018446
      dxz     :     0.004900
      dyz     :     0.005047
      dx2y2   :     0.003754
      dxy     :     0.002390
  7 H s       :     0.957927  s :     0.957927
      pz      :     0.009371  p :     0.023472
      px      :     0.006680
      py      :     0.007421
  8 H s       :     0.955919  s :     0.955919
      pz      :     0.005809  p :     0.023691
      px      :     0.013289
      py      :     0.004592
  9 H s       :     0.961994  s :     0.961994
      pz      :     0.011740  p :     0.023662
      px      :     0.005971
      py      :     0.005952
 10 H s       :     1.009245  s :     1.009245
      pz      :     0.011716  p :     0.023049
      px      :     0.005767
      py      :     0.005566
 11 H s       :     0.963546  s :     0.963546
      pz      :     0.005181  p :     0.022696
      px      :     0.012955
      py      :     0.004560
 12 H s       :     0.991210  s :     0.991210
      pz      :     0.012411  p :     0.022479
      px      :     0.005419
      py      :     0.004649
 13 H s       :     0.969450  s :     0.969450
      pz      :     0.009373  p :     0.021490
      px      :     0.005318
      py      :     0.006799
 14 H s       :     0.867884  s :     0.867884
      pz      :     0.017293  p :     0.047500
      px      :     0.014900
      py      :     0.015306
 15 H s       :     0.857582  s :     0.857582
      pz      :     0.009681  p :     0.046550
      px      :     0.022266
      py      :     0.014604
 16 H s       :     0.968596  s :     0.968596
      pz      :     0.011061  p :     0.021520
      px      :     0.004569
      py      :     0.005889
 17 H s       :     0.871916  s :     0.871916
      pz      :     0.016522  p :     0.047342
      px      :     0.013173
      py      :     0.017647
 18 H s       :     0.862831  s :     0.862831
      pz      :     0.011862  p :     0.046519
      px      :     0.014628
      py      :     0.020029


                     *******************************
                     * LOEWDIN POPULATION ANALYSIS *
                     *******************************

----------------------
LOEWDIN ATOMIC CHARGES
----------------------
   0 C :   -0.065481
   1 C :   -0.042139
   2 C :   -0.077823
   3 C :   -0.008272
   4 N :   -0.079368
   5 C :   -0.011071
   6 N :   -0.085771
   7 H :    0.025119
   8 H :    0.024793
   9 H :    0.023914
  10 H :    0.013052
  11 H :    0.024770
  12 H :    0.016460
  13 H :    0.016103
  14 H :    0.050622
  15 H :    0.054659
  16 H :    0.015463
  17 H :    0.051727
  18 H :    0.053243

-------------------------------
LOEWDIN REDUCED ORBITAL CHARGES
-------------------------------
  0 C s       :     2.838240  s :     2.838240
      pz      :     1.067472  p :     3.157443
      px      :     1.066361
      py      :     1.023610
      dz2     :     0.014750  d :     0.069798
      dxz     :     0.005795
      dyz     :     0.018437
      dx2y2   :     0.020450
      dxy     :     0.010366
  1 C s       :     2.830389  s :     2.830389
      pz      :     1.049203  p :     3.119725
      px      :     1.050785
      py      :     1.019737
      dz2     :     0.021268  d :     0.092025
      dxz     :     0.008235
      dyz     :     0.021285
      dx2y2   :     0.028122
      dxy     :     0.013115
  2 C s       :     2.840437  s :     2.840437
      pz      :     1.046597  p :     3.131046
      px      :     1.071122
      py      :     1.013328
      dz2     :     0.025742  d :     0.106340
      dxz     :     0.011897
      dyz     :     0.018600
      dx2y2   :     0.027500
      dxy     :     0.022600
  3 C s       :     2.811685  s :     2.811685
      pz      :     0.990197  p :     3.052307
      px      :     1.082805
      py      :     0.979305
      dz2     :     0.033568  d :     0.144279
      dxz     :     0.014291
      dyz     :     0.041957
      dx2y2   :     0.030270
      dxy     :     0.024193
  4 N s       :     3.099532  s :     3.099532
      pz      :     1.132990  p :     3.935525
      px      :     1.150713
      py      :     1.651822
      dz2     :     0.009417  d :     0.044311
      dxz     :     0.012323
      dyz     :     0.010698
      dx2y2   :     0.007967
      dxy     :     0.003907
  5 C s       :     2.813065  s :     2.813065
      pz      :     1.006836  p :     3.052814
      px      :     0.940464
      py      :     1.105515
      dz2     :     0.038122  d :     0.145191
      dxz     :     0.035049
      dyz     :     0.008918
      dx2y2   :     0.028944
      dxy     :     0.034158
  6 N s       :     3.106701  s :     3.106701
      pz      :     1.206305  p :     3.934491
      px      :     1.487044
      py      :     1.241142
      dz2     :     0.005329  d :     0.044579
      dxz     :     0.011972
      dyz     :     0.013917
      dx2y2   :     0.008159
      dxy     :     0.005202
  7 H s       :     0.908410  s :     0.908410
      pz      :     0.026081  p :     0.066471
      px      :     0.017484
      py      :     0.022905
  8 H s       :     0.908882  s :     0.908882
      pz      :     0.013261  p :     0.066325
      px      :     0.039763
      py      :     0.013301
  9 H s       :     0.909886  s :     0.909886
      pz      :     0.034340  p :     0.066200
      px      :     0.014657
      py      :     0.017204
 10 H s       :     0.919187  s :     0.919187
      pz      :     0.035648  p :     0.067762
      px      :     0.014739
      py      :     0.017375
 11 H s       :     0.908667  s :     0.908667
      pz      :     0.013407  p :     0.066563
      px      :     0.039735
      py      :     0.013421
 12 H s       :     0.911012  s :     0.911012
      pz      :     0.038300  p :     0.072528
      px      :     0.017735
      py      :     0.016493
 13 H s       :     0.914376  s :     0.914376
      pz      :     0.030867  p :     0.069522
      px      :     0.017264
      py      :     0.021391
 14 H s       :     0.823615  s :     0.823615
      pz      :     0.047085  p :     0.125764
      px      :     0.032327
      py      :     0.046352
 15 H s       :     0.821655  s :     0.821655
      pz      :     0.021034  p :     0.123686
      px      :     0.060061
      py      :     0.042591
 16 H s       :     0.915317  s :     0.915317
      pz      :     0.035993  p :     0.069220
      px      :     0.015072
      py      :     0.018155
 17 H s       :     0.823711  s :     0.823711
      pz      :     0.046006  p :     0.124562
      px      :     0.039175
      py      :     0.039380
 18 H s       :     0.823904  s :     0.823904
      pz      :     0.028740  p :     0.122854
      px      :     0.038632
      py      :     0.055482


                      *****************************
                      * MAYER POPULATION ANALYSIS *
                      *****************************

  NA   - Mulliken gross atomic population
  ZA   - Total nuclear charge
  QA   - Mulliken gross atomic charge
  VA   - Mayer's total valence
  BVA  - Mayer's bonded valence
  FA   - Mayer's free valence

  ATOM       NA         ZA         QA         VA         BVA        FA
  0 C      6.0178     6.0000    -0.0178     4.0329     4.0329     0.0000
  1 C      5.9407     6.0000     0.0593     4.0748     4.0748    -0.0000
  2 C      6.0737     6.0000    -0.0737     3.7856     3.7856    -0.0000
  3 C      6.0488     6.0000    -0.0488     4.0207     4.0207    -0.0000
  4 N      7.1186     7.0000    -0.1186     3.1617     3.1617    -0.0000
  5 C      6.0794     6.0000    -0.0794     4.0642     4.0642     0.0000
  6 N      7.1129     7.0000    -0.1129     3.1150     3.1150     0.0000
  7 H      0.9814     1.0000     0.0186     0.9833     0.9833    -0.0000
  8 H      0.9796     1.0000     0.0204     0.9918     0.9918    -0.0000
  9 H      0.9857     1.0000     0.0143     0.9883     0.9883     0.0000
 10 H      1.0323     1.0000    -0.0323     1.0121     1.0121     0.0000
 11 H      0.9862     1.0000     0.0138     0.9726     0.9726    -0.0000
 12 H      1.0137     1.0000    -0.0137     1.0041     1.0041     0.0000
 13 H      0.9909     1.0000     0.0091     0.9936     0.9936    -0.0000
 14 H      0.9154     1.0000     0.0846     1.0170     1.0170     0.0000
 15 H      0.9041     1.0000     0.0959     1.0001     1.0001    -0.0000
 16 H      0.9901     1.0000     0.0099     0.9963     0.9963    -0.0000
 17 H      0.9193     1.0000     0.0807     1.0124     1.0124     0.0000
 18 H      0.9094     1.0000     0.0906     0.9985     0.9985     0.0000

  Mayer bond orders larger than 0.1
B(  0-C ,  1-C ) :   1.1229 B(  0-C ,  7-H ) :   0.9595 B(  0-C ,  8-H ) :   0.9674 
B(  0-C ,  9-H ) :   0.9642 B(  1-C ,  2-C ) :   1.0742 B(  1-C , 10-H ) :   0.9079 
B(  1-C , 11-H ) :   0.9256 B(  2-C ,  3-C ) :   0.8728 B(  2-C ,  5-C ) :   0.8917 
B(  2-C , 12-H ) :   0.9259 B(  3-C ,  4-N ) :   1.1852 B(  3-C ,  5-C ) :   0.9713 
B(  3-C , 13-H ) :   0.9312 B(  4-N , 14-H ) :   0.9656 B(  4-N , 15-H ) :   0.9707 
B(  5-C ,  6-N ) :   1.1707 B(  5-C , 16-H ) :   0.9329 B(  6-N , 17-H ) :   0.9602 
B(  6-N , 18-H ) :   0.9686 


 *********************************** NBO 6.0 ***********************************
             N A T U R A L   A T O M I C   O R B I T A L   A N D
          N A T U R A L   B O N D   O R B I T A L   A N A L Y S I S
 ***************************** Kiya KiyaLu (100703) ****************************
  (c) Copyright 1996-2015 Board of Regents of the University of Wisconsin System
      on behalf of the Theoretical Chemistry Institute.  All rights reserved.

          Cite this program as:

          NBO 6.0.  E. D. Glendening, J. K. Badenhoop, A. E. Reed,
          J. E. Carpenter, J. A. Bohmann, C. M. Morales, C. R. Landis,
          and F. Weinhold (Theoretical Chemistry Institute, University
          of Wisconsin, Madison, WI, 2013); http://nbo6.chem.wisc.edu/

       /NPA    / : Natural Population Analysis
       /NBO    / : Natural Bond Orbital Analysis
       /AONBO  / : Write the AO to NBO transformation to lfn77
       /FILE   / : Set to 1971

 Filename set to 1971

 Job title:  *** NBO job generated by orca_scf

 Warning: MOs are non-orthogonal; program will continue

 Warning: -2488.04224 electrons reside outside the linearly independent MO space


 NATURAL POPULATIONS:  Natural atomic orbital occupancies

  NAO Atom No lang   Type(AO)    Occupancy      Energy
 -------------------------------------------------------
   1    C  1  s      Cor( 1s)     1.99922      -9.76938
   2    C  1  s      Val( 2s)     1.08623      -0.20861
   3    C  1  s      Ryd( 3s)     0.00041       0.84233
   4    C  1  px     Val( 2p)     1.21506      -0.06049
   5    C  1  px     Ryd( 3p)     0.00144       0.58128
   6    C  1  py     Val( 2p)     1.10342      -0.05929
   7    C  1  py     Ryd( 3p)     0.00156       0.50588
   8    C  1  pz     Val( 2p)     1.22896      -0.06151
   9    C  1  pz     Ryd( 3p)     0.00175       0.60160
  10    C  1  dxy    Ryd( 3d)     0.00037       2.11799
  11    C  1  dxz    Ryd( 3d)     0.00022       2.13274
  12    C  1  dyz    Ryd( 3d)     0.00066       2.24856
  13    C  1  dx2y2  Ryd( 3d)     0.00061       2.32466
  14    C  1  dz2    Ryd( 3d)     0.00048       2.27566

  15    C  2  s      Cor( 1s)     1.99906      -9.76889
  16    C  2  s      Val( 2s)     1.00505      -0.18446
  17    C  2  s      Ryd( 3s)     0.00095       0.87345
  18    C  2  px     Val( 2p)     1.19980      -0.06187
  19    C  2  px     Ryd( 3p)     0.00394       0.70446
  20    C  2  py     Val( 2p)     1.07063      -0.06759
  21    C  2  py     Ryd( 3p)     0.00360       0.59713
  22    C  2  pz     Val( 2p)     1.16821      -0.06093
  23    C  2  pz     Ryd( 3p)     0.00242       0.59859
  24    C  2  dxy    Ryd( 3d)     0.00044       2.09008
  25    C  2  dxz    Ryd( 3d)     0.00032       2.09085
  26    C  2  dyz    Ryd( 3d)     0.00070       2.20322
  27    C  2  dx2y2  Ryd( 3d)     0.00089       2.34242
  28    C  2  dz2    Ryd( 3d)     0.00065       2.33760

  29    C  3  s      Cor( 1s)     1.99888      -9.76386
  30    C  3  s      Val( 2s)     0.92476      -0.14977
  31    C  3  s      Ryd( 3s)     0.00266       0.77210
  32    C  3  px     Val( 2p)     1.10951      -0.06903
  33    C  3  px     Ryd( 3p)     0.00238       0.59520
  34    C  3  py     Val( 2p)     1.05610      -0.06434
  35    C  3  py     Ryd( 3p)     0.00441       0.66828
  36    C  3  pz     Val( 2p)     1.18172      -0.05293
  37    C  3  pz     Ryd( 3p)     0.00376       0.86380
  38    C  3  dxy    Ryd( 3d)     0.00112       2.05469
  39    C  3  dxz    Ryd( 3d)     0.00038       2.08244
  40    C  3  dyz    Ryd( 3d)     0.00052       2.17440
  41    C  3  dx2y2  Ryd( 3d)     0.00100       2.18850
  42    C  3  dz2    Ryd( 3d)     0.00095       2.34957

  43    C  4  s      Cor( 1s)     1.99889      -9.79885
  44    C  4  s      Val( 2s)     0.87420      -0.14495
  45    C  4  s      Ryd( 3s)     0.00304       0.71746
  46    C  4  px     Val( 2p)     1.10093      -0.07666
  47    C  4  px     Ryd( 3p)     0.00142       0.54132
  48    C  4  py     Val( 2p)     1.01019      -0.05207
  49    C  4  py     Ryd( 3p)     0.00752       0.60072
  50    C  4  pz     Val( 2p)     1.02827      -0.05078
  51    C  4  pz     Ryd( 3p)     0.00415       0.74949
  52    C  4  dxy    Ryd( 3d)     0.00108       2.11141
  53    C  4  dxz    Ryd( 3d)     0.00062       2.02188
  54    C  4  dyz    Ryd( 3d)     0.00139       2.32966
  55    C  4  dx2y2  Ryd( 3d)     0.00142       2.11909
  56    C  4  dz2    Ryd( 3d)     0.00132       2.21495

  57    N  5  s      Cor( 1s)     1.99942     -13.82543
  58    N  5  s      Val( 2s)     1.37745      -0.47328
  59    N  5  s      Ryd( 3s)     0.00020       1.10046
  60    N  5  px     Val( 2p)     1.36097      -0.15264
  61    N  5  px     Ryd( 3p)     0.00257       0.94258
  62    N  5  py     Val( 2p)     1.80435      -0.17793
  63    N  5  py     Ryd( 3p)     0.00628       0.85577
  64    N  5  pz     Val( 2p)     1.30558      -0.16025
  65    N  5  pz     Ryd( 3p)     0.00254       0.89483
  66    N  5  dxy    Ryd( 3d)     0.00088       2.43539
  67    N  5  dxz    Ryd( 3d)     0.00042       2.64435
  68    N  5  dyz    Ryd( 3d)     0.00120       2.55439
  69    N  5  dx2y2  Ryd( 3d)     0.00128       2.57835
  70    N  5  dz2    Ryd( 3d)     0.00062       2.59517

  71    C  6  s      Cor( 1s)     1.99888      -9.79745
  72    C  6  s      Val( 2s)     0.87593      -0.14441
  73    C  6  s      Ryd( 3s)     0.00358       0.72252
  74    C  6  px     Val( 2p)     0.93518      -0.05197
  75    C  6  px     Ryd( 3p)     0.00782       0.58653
  76    C  6  py     Val( 2p)     1.13313      -0.07609
  77    C  6  py     Ryd( 3p)     0.00161       0.55884
  78    C  6  pz     Val( 2p)     1.07599      -0.05510
  79    C  6  pz     Ryd( 3p)     0.00299       0.76784
  80    C  6  dxy    Ryd( 3d)     0.00125       2.19613
  81    C  6  dxz    Ryd( 3d)     0.00106       2.30512
  82    C  6  dyz    Ryd( 3d)     0.00049       2.00212
  83    C  6  dx2y2  Ryd( 3d)     0.00159       2.04058
  84    C  6  dz2    Ryd( 3d)     0.00148       2.25626

  85    N  7  s      Cor( 1s)     1.99942     -13.82226
  86    N  7  s      Val( 2s)     1.38349      -0.47270
  87    N  7  s      Ryd( 3s)     0.00027       1.11271
  88    N  7  px     Val( 2p)     1.64435      -0.17286
  89    N  7  px     Ryd( 3p)     0.00503       0.86935
  90    N  7  py     Val( 2p)     1.44031      -0.15277
  91    N  7  py     Ryd( 3p)     0.00328       0.92054
  92    N  7  pz     Val( 2p)     1.37556      -0.15590
  93    N  7  pz     Ryd( 3p)     0.00294       0.90108
  94    N  7  dxy    Ryd( 3d)     0.00091       2.43232
  95    N  7  dxz    Ryd( 3d)     0.00127       2.64935
  96    N  7  dyz    Ryd( 3d)     0.00087       2.68308
  97    N  7  dx2y2  Ryd( 3d)     0.00109       2.55350
  98    N  7  dz2    Ryd( 3d)     0.00048       2.46627

  99    H  8  s      Val( 1s)     0.77472       0.07417
 100    H  8  s      Ryd( 2s)     0.00165       0.33097
 101    H  8  px     Ryd( 2p)     0.00026       1.82512
 102    H  8  py     Ryd( 2p)     0.00034       1.92000
 103    H  8  pz     Ryd( 2p)     0.00046       2.01905

 104    H  9  s      Val( 1s)     0.78037       0.07148
 105    H  9  s      Ryd( 2s)     0.00175       0.36413
 106    H  9  px     Ryd( 2p)     0.00085       2.29143
 107    H  9  py     Ryd( 2p)     0.00011       1.67937
 108    H  9  pz     Ryd( 2p)     0.00016       1.72747

 109    H 10  s      Val( 1s)     0.78113       0.06882
 110    H 10  s      Ryd( 2s)     0.00185       0.34299
 111    H 10  px     Ryd( 2p)     0.00019       1.74656
 112    H 10  py     Ryd( 2p)     0.00023       1.78875
 113    H 10  pz     Ryd( 2p)     0.00067       2.18613

 114    H 11  s      Val( 1s)     0.77862       0.06604
 115    H 11  s      Ryd( 2s)     0.00541       0.37024
 116    H 11  px     Ryd( 2p)     0.00017       1.76851
 117    H 11  py     Ryd( 2p)     0.00020       1.79028
 118    H 11  pz     Ryd( 2p)     0.00078       2.18359

 119    H 12  s      Val( 1s)     0.77120       0.07641
 120    H 12  s      Ryd( 2s)     0.00360       0.34079
 121    H 12  px     Ryd( 2p)     0.00089       2.27733
 122    H 12  py     Ryd( 2p)     0.00011       1.78578
 123    H 12  pz     Ryd( 2p)     0.00015       1.72508

 124    H 13  s      Val( 1s)     0.76735       0.08580
 125    H 13  s      Ryd( 2s)     0.00395       0.33490
 126    H 13  px     Ryd( 2p)     0.00017       1.77371
 127    H 13  py     Ryd( 2p)     0.00013       1.88614
 128    H 13  pz     Ryd( 2p)     0.00087       2.25339

 129    H 14  s      Val( 1s)     0.78346       0.08493
 130    H 14  s      Ryd( 2s)     0.00250       0.33873
 131    H 14  px     Ryd( 2p)     0.00018       1.72363
 132    H 14  py     Ryd( 2p)     0.00037       1.98677
 133    H 14  pz     Ryd( 2p)     0.00065       2.16875

 134    H 15  s      Val( 1s)     0.63207       0.08852
 135    H 15  s      Ryd( 2s)     0.00221       0.40343
 136    H 15  px     Ryd( 2p)     0.00071       1.97119
 137    H 15  py     Ryd( 2p)     0.00091       1.75110
 138    H 15  pz     Ryd( 2p)     0.00092       2.17440

 139    H 16  s      Val( 1s)     0.63457       0.08687
 140    H 16  s      Ryd( 2s)     0.00269       0.39418
 141    H 16  px     Ryd( 2p)     0.00123       2.35454
 142    H 16  py     Ryd( 2p)     0.00084       1.70197
 143    H 16  pz     Ryd( 2p)     0.00047       1.78902

 144    H 17  s      Val( 1s)     0.78636       0.07898
 145    H 17  s      Ryd( 2s)     0.00249       0.35830
 146    H 17  px     Ryd( 2p)     0.00022       1.94736
 147    H 17  py     Ryd( 2p)     0.00019       1.69690
 148    H 17  pz     Ryd( 2p)     0.00080       2.22356

 149    H 18  s      Val( 1s)     0.63599       0.08719
 150    H 18  s      Ryd( 2s)     0.00257       0.38916
 151    H 18  px     Ryd( 2p)     0.00070       1.81397
 152    H 18  py     Ryd( 2p)     0.00094       1.96661
 153    H 18  pz     Ryd( 2p)     0.00089       2.12266

 154    H 19  s      Val( 1s)     0.63756       0.08622
 155    H 19  s      Ryd( 2s)     0.00303       0.37685
 156    H 19  px     Ryd( 2p)     0.00080       1.76177
 157    H 19  py     Ryd( 2p)     0.00106       2.25408
 158    H 19  pz     Ryd( 2p)     0.00065       1.85830

   1 low occupancy (<1.9990e) core orbital  found on  C  3
   1 low occupancy (<1.9990e) core orbital  found on  C  4
   1 low occupancy (<1.9990e) core orbital  found on  C  6


 Summary of Natural Population Analysis:

                                     Natural Population
             Natural    ---------------------------------------------
  Atom No    Charge        Core      Valence    Rydberg      Total
 --------------------------------------------------------------------
    C  1   -0.64039      1.99922     4.63367    0.00750     6.64039
    C  2   -0.45666      1.99906     4.44370    0.01390     6.45666
    C  3   -0.28816      1.99888     4.27209    0.01718     6.28816
    C  4   -0.03444      1.99889     4.01359    0.02196     6.03444
    N  5   -0.86377      1.99942     5.84835    0.01599     7.86377
    C  6   -0.04099      1.99888     4.02022    0.02189     6.04099
    N  7   -0.85926      1.99942     5.84371    0.01613     7.85926
    H  8    0.22258      0.00000     0.77472    0.00270     0.77742
    H  9    0.21676      0.00000     0.78037    0.00287     0.78324
    H 10    0.21593      0.00000     0.78113    0.00294     0.78407
    H 11    0.21483      0.00000     0.77862    0.00655     0.78517
    H 12    0.22406      0.00000     0.77120    0.00474     0.77594
    H 13    0.22753      0.00000     0.76735    0.00512     0.77247
    H 14    0.21285      0.00000     0.78346    0.00369     0.78715
    H 15    0.36318      0.00000     0.63207    0.00475     0.63682
    H 16    0.36021      0.00000     0.63457    0.00522     0.63979
    H 17    0.20994      0.00000     0.78636    0.00370     0.79006
    H 18    0.35892      0.00000     0.63599    0.00510     0.64108
    H 19    0.35689      0.00000     0.63756    0.00554     0.64311
 ====================================================================
 * Total *  0.00000     13.99378    41.83875    0.16747    56.00000

                                 Natural Population
 ---------------------------------------------------------
   Core                      13.99378 ( 99.9556% of   14)
   Valence                   41.83875 ( 99.6161% of   42)
   Natural Minimal Basis     55.83253 ( 99.7009% of   56)
   Natural Rydberg Basis      0.16747 (  0.2991% of   56)
 ---------------------------------------------------------

    Atom No         Natural Electron Configuration
 ----------------------------------------------------------------------------
      C  1      [core]2s( 1.09)2p( 3.55)
      C  2      [core]2s( 1.01)2p( 3.44)3p( 0.01)
      C  3      [core]2s( 0.92)2p( 3.35)3p( 0.01)
      C  4      [core]2s( 0.87)2p( 3.14)3p( 0.01)3d( 0.01)
      N  5      [core]2s( 1.38)2p( 4.47)3p( 0.01)
      C  6      [core]2s( 0.88)2p( 3.14)3p( 0.01)3d( 0.01)
      N  7      [core]2s( 1.38)2p( 4.46)3p( 0.01)
      H  8            1s( 0.77)
      H  9            1s( 0.78)
      H 10            1s( 0.78)
      H 11            1s( 0.78)2s( 0.01)
      H 12            1s( 0.77)
      H 13            1s( 0.77)
      H 14            1s( 0.78)
      H 15            1s( 0.63)
      H 16            1s( 0.63)
      H 17            1s( 0.79)
      H 18            1s( 0.64)
      H 19            1s( 0.64)


 NATURAL BOND ORBITAL ANALYSIS:

                            Occupancies       Lewis Structure    Low   High
         Max    Occ     -------------------  -----------------   occ   occ
  Cycle  Ctr   Thresh    Lewis   non-Lewis     CR  BD  nC  LP    (L)   (NL)
 ============================================================================
    1     2     1.90    55.41543   0.58457      7  19   0   2     0      0
 ----------------------------------------------------------------------------

 Structure accepted: No low occupancy Lewis orbitals

 -------------------------------------------------------
   Core                     13.99378 ( 99.956% of  14)
   Valence Lewis            41.42165 ( 98.623% of  42)
  ==================      =============================
   Total Lewis              55.41543 ( 98.956% of  56)
  -----------------------------------------------------
   Valence non-Lewis         0.47192 (  0.843% of  56)
   Rydberg non-Lewis         0.11265 (  0.201% of  56)
  ==================      =============================
   Total non-Lewis           0.58457 (  1.044% of  56)
 -------------------------------------------------------


     (Occupancy)   Bond orbital / Coefficients / Hybrids
 ------------------ Lewis ------------------------------------------------------
   1. (1.99922) CR ( 1) C  1            s(100.00%)
                                         1.0000  0.0000  0.0000  0.0000  0.0000
                                         0.0000  0.0000  0.0000  0.0000  0.0000
                                         0.0000  0.0000  0.0000  0.0000
   2. (1.99906) CR ( 1) C  2            s(100.00%)
                                         1.0000  0.0000  0.0000  0.0000  0.0000
                                         0.0000  0.0000  0.0000  0.0000  0.0000
                                         0.0000  0.0000  0.0000  0.0000
   3. (1.99888) CR ( 1) C  3            s(100.00%)
                                         1.0000  0.0000  0.0000  0.0000  0.0000
                                         0.0000  0.0000  0.0000  0.0000  0.0000
                                         0.0000  0.0000  0.0000  0.0000
   4. (1.99889) CR ( 1) C  4            s(100.00%)
                                         1.0000  0.0000  0.0000  0.0000  0.0000
                                         0.0000  0.0000  0.0000  0.0000  0.0000
                                         0.0000  0.0000  0.0000  0.0000
   5. (1.99942) CR ( 1) N  5            s(100.00%)
                                         1.0000  0.0000  0.0000  0.0000  0.0000
                                         0.0000  0.0000  0.0000  0.0000  0.0000
                                         0.0000  0.0000  0.0000  0.0000
   6. (1.99888) CR ( 1) C  6            s(100.00%)
                                         1.0000  0.0000  0.0000  0.0000  0.0000
                                         0.0000  0.0000  0.0000  0.0000  0.0000
                                         0.0000  0.0000  0.0000  0.0000
   7. (1.99942) CR ( 1) N  7            s(100.00%)
                                         1.0000  0.0000  0.0000  0.0000  0.0000
                                         0.0000  0.0000  0.0000  0.0000  0.0000
                                         0.0000  0.0000  0.0000  0.0000
   8. (1.93361) LP ( 1) N  5            s( 15.27%)p 5.54( 84.67%)d 0.00(  0.06%)
                                         0.0000  0.3908 -0.0018  0.1260  0.0067
                                        -0.9056 -0.0425  0.0934  0.0080  0.0057
                                        -0.0011  0.0048  0.0205  0.0113
   9. (1.93992) LP ( 1) N  7            s( 16.23%)p 5.16( 83.70%)d 0.00(  0.06%)
                                         0.0000  0.4029 -0.0041  0.7588  0.0331
                                        -0.3901 -0.0185 -0.3277 -0.0177  0.0156
                                         0.0130 -0.0071 -0.0112  0.0069
  10. (1.98422) BD ( 1) C  1- C  2
               ( 49.34%)   0.7024* C  1 s( 30.26%)p 2.30( 69.71%)d 0.00(  0.03%)
                                         0.0000  0.5501  0.0017 -0.2667 -0.0085
                                        -0.7873  0.0046 -0.0769 -0.0101  0.0095
                                         0.0008  0.0027 -0.0125 -0.0087
               ( 50.66%)   0.7118* C  2 s( 27.85%)p 2.59( 72.11%)d 0.00(  0.03%)
                                         0.0000  0.5277  0.0115  0.2632 -0.0099
                                         0.8040  0.0110  0.0702 -0.0146  0.0101
                                         0.0016  0.0031 -0.0127 -0.0084
  11. (1.98757) BD ( 1) C  1- H  8
               ( 61.20%)   0.7823* C  1 s( 23.28%)p 3.29( 76.68%)d 0.00(  0.04%)
                                         0.0000  0.4824  0.0041 -0.3545  0.0074
                                         0.5166  0.0062 -0.6116  0.0072 -0.0083
                                         0.0101 -0.0137 -0.0026  0.0050
               ( 38.80%)   0.6229* H  8 s( 99.91%)p 0.00(  0.09%)
                                         0.9996 -0.0012  0.0116 -0.0182  0.0206
  12. (1.98811) BD ( 1) C  1- H  9
               ( 61.00%)   0.7810* C  1 s( 23.26%)p 3.30( 76.70%)d 0.00(  0.03%)
                                         0.0000  0.4823 -0.0031  0.8704 -0.0008
                                         0.0501  0.0159 -0.0819 -0.0011  0.0010
                                        -0.0029 -0.0001  0.0159 -0.0092
               ( 39.00%)   0.6245* H  9 s( 99.90%)p 0.00(  0.10%)
                                         0.9995 -0.0020 -0.0317 -0.0027  0.0027
  13. (1.98801) BD ( 1) C  1- H 10
               ( 60.97%)   0.7808* C  1 s( 23.16%)p 3.32( 76.80%)d 0.00(  0.04%)
                                         0.0000  0.4813 -0.0019 -0.2123  0.0035
                                         0.3317  0.0150  0.7827 -0.0045 -0.0029
                                        -0.0075  0.0106 -0.0013  0.0139
               ( 39.03%)   0.6248* H 10 s( 99.90%)p 0.00(  0.10%)
                                         0.9995 -0.0021  0.0070 -0.0131 -0.0272
  14. (1.97632) BD ( 1) C  2- C  3
               ( 49.84%)   0.7060* C  2 s( 29.10%)p 2.44( 70.86%)d 0.00(  0.04%)
                                         0.0000  0.5394  0.0031  0.3281 -0.0116
                                        -0.5122 -0.0046  0.5818  0.0037 -0.0076
                                         0.0097 -0.0130 -0.0035  0.0045
               ( 50.16%)   0.7083* C  3 s( 31.83%)p 2.14( 68.14%)d 0.00(  0.03%)
                                         0.0000  0.5642  0.0051 -0.3312 -0.0202
                                         0.4976  0.0078 -0.5685  0.0191 -0.0077
                                         0.0067 -0.0110 -0.0032  0.0084
  15. (1.97514) BD ( 1) C  2- H 11
               ( 61.17%)   0.7821* C  2 s( 21.56%)p 3.64( 78.40%)d 0.00(  0.04%)
                                         0.0000  0.4643 -0.0075  0.2013 -0.0166
                                        -0.3001  0.0069 -0.8082 -0.0014 -0.0031
                                        -0.0077  0.0103 -0.0011  0.0136
               ( 38.83%)   0.6231* H 11 s( 99.89%)p 0.00(  0.11%)
                                         0.9994 -0.0065 -0.0054  0.0102  0.0304
  16. (1.97316) BD ( 1) C  2- H 12
               ( 61.51%)   0.7843* C  2 s( 21.46%)p 3.66( 78.50%)d 0.00(  0.04%)
                                         0.0000  0.4632 -0.0049 -0.8841  0.0073
                                        -0.0191 -0.0023  0.0528 -0.0111  0.0008
                                        -0.0025  0.0002  0.0162 -0.0091
               ( 38.49%)   0.6204* H 12 s( 99.89%)p 0.00(  0.11%)
                                         0.9994 -0.0053  0.0328  0.0014 -0.0015
  17. (1.93976) BD ( 1) C  3- C  4
               ( 50.89%)   0.7134* C  3 s( 21.18%)p 3.72( 78.76%)d 0.00(  0.06%)
                                         0.0000  0.4602  0.0037 -0.2710 -0.0125
                                        -0.8366  0.0121 -0.1165  0.0181 -0.0038
                                        -0.0007  0.0085 -0.0199 -0.0109
               ( 49.11%)   0.7008* C  4 s( 23.23%)p 3.30( 76.70%)d 0.00(  0.07%)
                                         0.0000  0.4819 -0.0069 -0.4539 -0.0075
                                         0.7421 -0.0193  0.0979  0.0181 -0.0039
                                        -0.0008  0.0045 -0.0214 -0.0131
  18. (1.94201) BD ( 1) C  3- C  6
               ( 50.70%)   0.7120* C  3 s( 21.63%)p 3.62( 78.31%)d 0.00(  0.06%)
                                         0.0000  0.4651 -0.0049  0.8817 -0.0012
                                        -0.0196  0.0144 -0.0687  0.0195 -0.0156
                                        -0.0058  0.0012  0.0134 -0.0120
               ( 49.30%)   0.7022* C  6 s( 23.67%)p 3.22( 76.26%)d 0.00(  0.07%)
                                         0.0000  0.4865 -0.0065 -0.5520  0.0176
                                         0.6483  0.0001  0.1929 -0.0018 -0.0154
                                        -0.0082  0.0029  0.0145 -0.0124
  19. (1.97233) BD ( 1) C  3- H 13
               ( 61.82%)   0.7863* C  3 s( 25.19%)p 2.97( 74.78%)d 0.00(  0.03%)
                                         0.0000  0.5019 -0.0063 -0.1963 -0.0084
                                         0.2266  0.0034  0.8111 -0.0047 -0.0018
                                        -0.0026  0.0029 -0.0007  0.0159
               ( 38.18%)   0.6179* H 13 s( 99.89%)p 0.00(  0.11%)
                                         0.9994 -0.0059  0.0074 -0.0080 -0.0316
  20. (1.99140) BD ( 1) C  4- N  5
               ( 40.34%)   0.6351* C  4 s( 26.84%)p 2.72( 73.07%)d 0.00(  0.09%)
                                         0.0000  0.5172  0.0291 -0.2457 -0.0124
                                        -0.3922 -0.0446 -0.7171 -0.0108  0.0067
                                         0.0112  0.0184 -0.0033  0.0206
               ( 59.66%)   0.7724* N  5 s( 36.37%)p 1.75( 63.57%)d 0.00(  0.06%)
                                         0.0000  0.6031  0.0009  0.2197 -0.0007
                                         0.3605  0.0033  0.6763 -0.0088  0.0080
                                         0.0023  0.0220 -0.0023  0.0058
  21. (1.93812) BD ( 1) C  4- C  6
               ( 49.99%)   0.7071* C  4 s( 23.59%)p 3.24( 76.35%)d 0.00(  0.06%)
                                         0.0000  0.4856 -0.0077  0.8464 -0.0020
                                         0.2083 -0.0317 -0.0523  0.0042  0.0196
                                        -0.0024 -0.0001  0.0071 -0.0127
               ( 50.01%)   0.7072* C  6 s( 23.37%)p 3.28( 76.57%)d 0.00(  0.06%)
                                         0.0000  0.4834 -0.0036 -0.4626  0.0261
                                        -0.7400 -0.0050 -0.0578 -0.0074  0.0204
                                        -0.0011 -0.0011  0.0050 -0.0132
  22. (1.97411) BD ( 1) C  4- H 14
               ( 61.33%)   0.7831* C  4 s( 26.09%)p 2.83( 73.88%)d 0.00(  0.03%)
                                         0.0000  0.5106 -0.0132 -0.1278 -0.0097
                                        -0.5001 -0.0139  0.6865 -0.0279  0.0018
                                        -0.0008 -0.0125 -0.0020  0.0112
               ( 38.67%)   0.6219* H 14 s( 99.89%)p 0.00(  0.11%)
                                         0.9994 -0.0066  0.0043  0.0189 -0.0265
  23. (1.98910) BD ( 1) N  5- H 15
               ( 68.50%)   0.8276* N  5 s( 24.67%)p 3.05( 75.26%)d 0.00(  0.07%)
                                         0.0000  0.4967  0.0001  0.4637 -0.0105
                                         0.2062  0.0117 -0.7026  0.0324  0.0136
                                        -0.0112 -0.0187  0.0010  0.0091
               ( 31.50%)   0.5613* H 15 s( 99.81%)p 0.00(  0.19%)
                                         0.9991 -0.0039 -0.0255 -0.0062  0.0342
  24. (1.98798) BD ( 1) N  5- H 16
               ( 68.39%)   0.8270* N  5 s( 23.60%)p 3.23( 76.33%)d 0.00(  0.07%)
                                         0.0000  0.4858  0.0019 -0.8479  0.0277
                                         0.0714  0.0141 -0.1952  0.0155 -0.0176
                                         0.0071 -0.0035  0.0172 -0.0069
               ( 31.61%)   0.5622* H 16 s( 99.81%)p 0.00(  0.19%)
                                         0.9990 -0.0045  0.0428 -0.0005  0.0082
  25. (1.99064) BD ( 1) C  6- N  7
               ( 40.50%)   0.6364* C  6 s( 26.78%)p 2.73( 73.12%)d 0.00(  0.09%)
                                         0.0000  0.5166  0.0319  0.5842  0.0459
                                        -0.0748 -0.0021  0.6183  0.0016 -0.0030
                                         0.0246 -0.0058  0.0110  0.0119
               ( 59.50%)   0.7713* N  7 s( 36.26%)p 1.76( 63.68%)d 0.00(  0.06%)
                                         0.0000  0.6021  0.0015 -0.5331 -0.0010
                                         0.0793  0.0003 -0.5885  0.0072 -0.0021
                                         0.0206 -0.0086  0.0093 -0.0044
  26. (1.97371) BD ( 1) C  6- H 17
               ( 61.20%)   0.7823* C  6 s( 25.93%)p 2.86( 74.04%)d 0.00(  0.03%)
                                         0.0000  0.5089 -0.0175  0.3719  0.0266
                                         0.1599 -0.0059 -0.7584  0.0239  0.0025
                                        -0.0072 -0.0039  0.0007  0.0145
               ( 38.80%)   0.6229* H 17 s( 99.89%)p 0.00(  0.11%)
                                         0.9994 -0.0067 -0.0136 -0.0055  0.0298
  27. (1.98870) BD ( 1) N  7- H 18
               ( 68.29%)   0.8263* N  7 s( 24.19%)p 3.13( 75.73%)d 0.00(  0.08%)
                                         0.0000  0.4919  0.0008 -0.2446 -0.0121
                                        -0.5179  0.0204  0.6543 -0.0256  0.0142
                                        -0.0171 -0.0116  0.0038  0.0120
               ( 31.71%)   0.5632* H 18 s( 99.82%)p 0.00(  0.18%)
                                         0.9991 -0.0040  0.0093  0.0292 -0.0298
  28. (1.98772) BD ( 1) N  7- H 19
               ( 68.23%)   0.8260* N  7 s( 23.23%)p 3.30( 76.70%)d 0.00(  0.08%)
                                         0.0000  0.4819  0.0035  0.2800 -0.0257
                                         0.7559 -0.0166  0.3406 -0.0152 -0.0001
                                         0.0015  0.0164 -0.0226 -0.0022
               ( 31.77%)   0.5636* H 19 s( 99.82%)p 0.00(  0.18%)
                                         0.9991 -0.0048 -0.0162 -0.0365 -0.0144
 ---------------- non-Lewis ----------------------------------------------------
  29. (0.01108) BD*( 1) C  1- C  2
               ( 50.66%)   0.7118* C  1 s( 30.26%)p 2.30( 69.71%)d 0.00(  0.03%)
                                         0.0000  0.5501  0.0017 -0.2667 -0.0085
                                        -0.7873  0.0046 -0.0769 -0.0101  0.0095
                                         0.0008  0.0027 -0.0125 -0.0087
               ( 49.34%)  -0.7024* C  2 s( 27.85%)p 2.59( 72.11%)d 0.00(  0.03%)
                                         0.0000  0.5277  0.0115  0.2632 -0.0099
                                         0.8040  0.0110  0.0702 -0.0146  0.0101
                                         0.0016  0.0031 -0.0127 -0.0084
  30. (0.00708) BD*( 1) C  1- H  8
               ( 38.80%)   0.6229* C  1 s( 23.28%)p 3.29( 76.68%)d 0.00(  0.04%)
                                         0.0000 -0.4824 -0.0041  0.3545 -0.0074
                                        -0.5166 -0.0062  0.6116 -0.0072  0.0083
                                        -0.0101  0.0137  0.0026 -0.0050
               ( 61.20%)  -0.7823* H  8 s( 99.91%)p 0.00(  0.09%)
                                        -0.9996  0.0012 -0.0116  0.0182 -0.0206
  31. (0.00961) BD*( 1) C  1- H  9
               ( 39.00%)   0.6245* C  1 s( 23.26%)p 3.30( 76.70%)d 0.00(  0.03%)
                                         0.0000 -0.4823  0.0031 -0.8704  0.0008
                                        -0.0501 -0.0159  0.0819  0.0011 -0.0010
                                         0.0029  0.0001 -0.0159  0.0092
               ( 61.00%)  -0.7810* H  9 s( 99.90%)p 0.00(  0.10%)
                                        -0.9995  0.0020  0.0317  0.0027 -0.0027
  32. (0.00973) BD*( 1) C  1- H 10
               ( 39.03%)   0.6248* C  1 s( 23.16%)p 3.32( 76.80%)d 0.00(  0.04%)
                                         0.0000 -0.4813  0.0019  0.2123 -0.0035
                                        -0.3317 -0.0150 -0.7827  0.0045  0.0029
                                         0.0075 -0.0106  0.0013 -0.0139
               ( 60.97%)  -0.7808* H 10 s( 99.90%)p 0.00(  0.10%)
                                        -0.9995  0.0021 -0.0070  0.0131  0.0272
  33. (0.02591) BD*( 1) C  2- C  3
               ( 50.16%)   0.7083* C  2 s( 29.10%)p 2.44( 70.86%)d 0.00(  0.04%)
                                         0.0000 -0.5394 -0.0031 -0.3281  0.0116
                                         0.5122  0.0046 -0.5818 -0.0037  0.0076
                                        -0.0097  0.0130  0.0035 -0.0045
               ( 49.84%)  -0.7060* C  3 s( 31.83%)p 2.14( 68.14%)d 0.00(  0.03%)
                                         0.0000 -0.5642 -0.0051  0.3312  0.0202
                                        -0.4976 -0.0078  0.5685 -0.0191  0.0077
                                        -0.0067  0.0110  0.0032 -0.0084
  34. (0.02041) BD*( 1) C  2- H 11
               ( 38.83%)   0.6231* C  2 s( 21.56%)p 3.64( 78.40%)d 0.00(  0.04%)
                                         0.0000 -0.4643  0.0075 -0.2013  0.0166
                                         0.3001 -0.0069  0.8082  0.0014  0.0031
                                         0.0077 -0.0103  0.0011 -0.0136
               ( 61.17%)  -0.7821* H 11 s( 99.89%)p 0.00(  0.11%)
                                        -0.9994  0.0065  0.0054 -0.0102 -0.0304
  35. (0.02034) BD*( 1) C  2- H 12
               ( 38.49%)   0.6204* C  2 s( 21.46%)p 3.66( 78.50%)d 0.00(  0.04%)
                                         0.0000 -0.4632  0.0049  0.8841 -0.0073
                                         0.0191  0.0023 -0.0528  0.0111 -0.0008
                                         0.0025 -0.0002 -0.0162  0.0091
               ( 61.51%)  -0.7843* H 12 s( 99.89%)p 0.00(  0.11%)
                                        -0.9994  0.0053 -0.0328 -0.0014  0.0015
  36. (0.07163) BD*( 1) C  3- C  4
               ( 49.11%)   0.7008* C  3 s( 21.18%)p 3.72( 78.76%)d 0.00(  0.06%)
                                         0.0000 -0.4602 -0.0037  0.2710  0.0125
                                         0.8366 -0.0121  0.1165 -0.0181  0.0038
                                         0.0007 -0.0085  0.0199  0.0109
               ( 50.89%)  -0.7134* C  4 s( 23.23%)p 3.30( 76.70%)d 0.00(  0.07%)
                                         0.0000 -0.4819  0.0069  0.4539  0.0075
                                        -0.7421  0.0193 -0.0979 -0.0181  0.0039
                                         0.0008 -0.0045  0.0214  0.0131
  37. (0.07224) BD*( 1) C  3- C  6
               ( 49.30%)   0.7022* C  3 s( 21.63%)p 3.62( 78.31%)d 0.00(  0.06%)
                                         0.0000 -0.4651  0.0049 -0.8817  0.0012
                                         0.0196 -0.0144  0.0687 -0.0195  0.0156
                                         0.0058 -0.0012 -0.0134  0.0120
               ( 50.70%)  -0.7120* C  6 s( 23.67%)p 3.22( 76.26%)d 0.00(  0.07%)
                                         0.0000 -0.4865  0.0065  0.5520 -0.0176
                                        -0.6483 -0.0001 -0.1929  0.0018  0.0154
                                         0.0082 -0.0029 -0.0145  0.0124
  38. (0.02463) BD*( 1) C  3- H 13
               ( 38.18%)   0.6179* C  3 s( 25.19%)p 2.97( 74.78%)d 0.00(  0.03%)
                                         0.0000 -0.5019  0.0063  0.1963  0.0084
                                        -0.2266 -0.0034 -0.8111  0.0047  0.0018
                                         0.0026 -0.0029  0.0007 -0.0159
               ( 61.82%)  -0.7863* H 13 s( 99.89%)p 0.00(  0.11%)
                                        -0.9994  0.0059 -0.0074  0.0080  0.0316
  39. (0.02313) BD*( 1) C  4- N  5
               ( 59.66%)   0.7724* C  4 s( 26.84%)p 2.72( 73.07%)d 0.00(  0.09%)
                                         0.0000  0.5172  0.0291 -0.2457 -0.0124
                                        -0.3922 -0.0446 -0.7171 -0.0108  0.0067
                                         0.0112  0.0184 -0.0033  0.0206
               ( 40.34%)  -0.6351* N  5 s( 36.37%)p 1.75( 63.57%)d 0.00(  0.06%)
                                         0.0000  0.6031  0.0009  0.2197 -0.0007
                                         0.3605  0.0033  0.6763 -0.0088  0.0080
                                         0.0023  0.0220 -0.0023  0.0058
  40. (0.04269) BD*( 1) C  4- C  6
               ( 50.01%)   0.7072* C  4 s( 23.59%)p 3.24( 76.35%)d 0.00(  0.06%)
                                         0.0000  0.4856 -0.0077  0.8464 -0.0020
                                         0.2083 -0.0317 -0.0523  0.0042  0.0196
                                        -0.0024 -0.0001  0.0071 -0.0127
               ( 49.99%)  -0.7071* C  6 s( 23.37%)p 3.28( 76.57%)d 0.00(  0.06%)
                                         0.0000  0.4834 -0.0036 -0.4626  0.0261
                                        -0.7400 -0.0050 -0.0578 -0.0074  0.0204
                                        -0.0011 -0.0011  0.0050 -0.0132
  41. (0.03394) BD*( 1) C  4- H 14
               ( 38.67%)   0.6219* C  4 s( 26.09%)p 2.83( 73.88%)d 0.00(  0.03%)
                                         0.0000 -0.5106  0.0132  0.1278  0.0097
                                         0.5001  0.0139 -0.6865  0.0279 -0.0018
                                         0.0008  0.0125  0.0020 -0.0112
               ( 61.33%)  -0.7831* H 14 s( 99.89%)p 0.00(  0.11%)
                                        -0.9994  0.0066 -0.0043 -0.0189  0.0265
  42. (0.00959) BD*( 1) N  5- H 15
               ( 31.50%)   0.5613* N  5 s( 24.67%)p 3.05( 75.26%)d 0.00(  0.07%)
                                         0.0000 -0.4967 -0.0001 -0.4637  0.0105
                                        -0.2062 -0.0117  0.7026 -0.0324 -0.0136
                                         0.0112  0.0187 -0.0010 -0.0091
               ( 68.50%)  -0.8276* H 15 s( 99.81%)p 0.00(  0.19%)
                                        -0.9991  0.0039  0.0255  0.0062 -0.0342
  43. (0.01074) BD*( 1) N  5- H 16
               ( 31.61%)   0.5622* N  5 s( 23.60%)p 3.23( 76.33%)d 0.00(  0.07%)
                                         0.0000 -0.4858 -0.0019  0.8479 -0.0277
                                        -0.0714 -0.0141  0.1952 -0.0155  0.0176
                                        -0.0071  0.0035 -0.0172  0.0069
               ( 68.39%)  -0.8270* H 16 s( 99.81%)p 0.00(  0.19%)
                                        -0.9990  0.0045 -0.0428  0.0005 -0.0082
  44. (0.02414) BD*( 1) C  6- N  7
               ( 59.50%)   0.7713* C  6 s( 26.78%)p 2.73( 73.12%)d 0.00(  0.09%)
                                         0.0000  0.5166  0.0319  0.5842  0.0459
                                        -0.0748 -0.0021  0.6183  0.0016 -0.0030
                                         0.0246 -0.0058  0.0110  0.0119
               ( 40.50%)  -0.6364* N  7 s( 36.26%)p 1.76( 63.68%)d 0.00(  0.06%)
                                         0.0000  0.6021  0.0015 -0.5331 -0.0010
                                         0.0793  0.0003 -0.5885  0.0072 -0.0021
                                         0.0206 -0.0086  0.0093 -0.0044
  45. (0.03512) BD*( 1) C  6- H 17
               ( 38.80%)   0.6229* C  6 s( 25.93%)p 2.86( 74.04%)d 0.00(  0.03%)
                                         0.0000 -0.5089  0.0175 -0.3719 -0.0266
                                        -0.1599  0.0059  0.7584 -0.0239 -0.0025
                                         0.0072  0.0039 -0.0007 -0.0145
               ( 61.20%)  -0.7823* H 17 s( 99.89%)p 0.00(  0.11%)
                                        -0.9994  0.0067  0.0136  0.0055 -0.0298
  46. (0.00937) BD*( 1) N  7- H 18
               ( 31.71%)   0.5632* N  7 s( 24.19%)p 3.13( 75.73%)d 0.00(  0.08%)
                                         0.0000 -0.4919 -0.0008  0.2446  0.0121
                                         0.5179 -0.0204 -0.6543  0.0256 -0.0142
                                         0.0171  0.0116 -0.0038 -0.0120
               ( 68.29%)  -0.8263* H 18 s( 99.82%)p 0.00(  0.18%)
                                        -0.9991  0.0040 -0.0093 -0.0292  0.0298
  47. (0.01055) BD*( 1) N  7- H 19
               ( 31.77%)   0.5636* N  7 s( 23.23%)p 3.30( 76.70%)d 0.00(  0.08%)
                                         0.0000 -0.4819 -0.0035 -0.2800  0.0257
                                        -0.7559  0.0166 -0.3406  0.0152  0.0001
                                        -0.0015 -0.0164  0.0226  0.0022
               ( 68.23%)  -0.8260* H 19 s( 99.82%)p 0.00(  0.18%)
                                        -0.9991  0.0048  0.0162  0.0365  0.0144
  48. (0.00282) RY ( 1) C  1            s(  7.59%)p10.92( 82.85%)d 1.26(  9.57%)
                                         0.0000  0.0126  0.2752  0.0087  0.4787
                                        -0.0106 -0.4947  0.0129  0.5952 -0.1525
                                        -0.0174 -0.2250 -0.1458 -0.0142
  49. (0.00150) RY ( 2) C  1            s(  0.01%)p99.99( 76.61%)d99.99( 23.37%)
                                         0.0000 -0.0004  0.0116  0.0078  0.6136
                                        -0.0016 -0.1374 -0.0082 -0.6087 -0.2545
                                         0.0374  0.3158 -0.2213  0.1373
  50. (0.00045) RY ( 3) C  1            s( 19.29%)p 4.12( 79.40%)d 0.07(  1.31%)
                                         0.0000  0.0120  0.4390  0.0047 -0.4765
                                         0.0134 -0.6759  0.0029 -0.3316  0.0517
                                         0.0547  0.0614  0.0523 -0.0300
  51. (0.00013) RY ( 4) C  1            s( 57.06%)p 0.35( 19.91%)d 0.40( 23.03%)
                                         0.0000 -0.0081  0.7553 -0.0034  0.1660
                                        -0.0019  0.4034 -0.0030  0.0936  0.2523
                                         0.1427  0.3300  0.1933 -0.0052
  52. (0.00003) RY ( 5) C  1            s(  2.66%)p 1.14(  3.04%)d35.49( 94.30%)
  53. (0.00002) RY ( 6) C  1            s(  0.56%)p34.27( 19.15%)d99.99( 80.29%)
  54. (0.00001) RY ( 7) C  1            s(  9.63%)p 1.46( 14.02%)d 7.93( 76.35%)
  55. (0.00000) RY ( 8) C  1            s(  0.00%)p 1.00(  3.53%)d27.30( 96.47%)
  56. (0.00000) RY ( 9) C  1            s(  3.24%)p 0.49(  1.58%)d29.34( 95.17%)
  57. (0.00547) RY ( 1) C  2            s(  2.13%)p44.34( 94.63%)d 1.52(  3.24%)
                                         0.0000  0.0063  0.1460  0.0177  0.5840
                                        -0.0055 -0.5824 -0.0109 -0.5152  0.0157
                                         0.0210 -0.0603  0.0816 -0.1463
  58. (0.00344) RY ( 2) C  2            s(  6.28%)p13.03( 81.78%)d 1.90( 11.94%)
                                         0.0000 -0.0089  0.2504 -0.0144 -0.6761
                                         0.0017 -0.5976 -0.0026 -0.0579  0.0108
                                        -0.1429 -0.0997 -0.2979 -0.0133
  59. (0.00120) RY ( 3) C  2            s(  7.78%)p 8.99( 70.01%)d 2.85( 22.21%)
                                         0.0000 -0.0133  0.2787 -0.0058 -0.1344
                                        -0.0152  0.5242 -0.0026 -0.6379 -0.0491
                                        -0.0902 -0.4049 -0.2079 -0.0664
  60. (0.00057) RY ( 4) C  2            s( 52.21%)p 0.43( 22.35%)d 0.49( 25.44%)
                                         0.0000  0.0063  0.7225 -0.0080  0.2474
                                        -0.0018  0.0657 -0.0103  0.3973 -0.4136
                                         0.0976  0.0443 -0.2338 -0.1312
  61. (0.00028) RY ( 5) C  2            s(  5.42%)p 2.70( 14.65%)d14.75( 79.93%)
                                         0.0000  0.0062  0.2327  0.0019  0.1465
                                        -0.0017 -0.0183 -0.0091  0.3530  0.6351
                                        -0.2100 -0.5747  0.1467  0.0048
  62. (0.00019) RY ( 6) C  2            s(  0.68%)p 3.38(  2.31%)d99.99( 97.01%)
                                         0.0000 -0.0010  0.0825  0.0023  0.0259
                                        -0.0221  0.1396  0.0067 -0.0485  0.4686
                                        -0.2539  0.5408 -0.2776 -0.5627
  63. (0.00011) RY ( 7) C  2            s(  8.82%)p 0.36(  3.19%)d 9.97( 87.99%)
                                         0.0000 -0.0009  0.2970 -0.0087  0.0961
                                        -0.0025  0.0444  0.0124 -0.1431  0.2851
                                        -0.1070  0.3826 -0.1311  0.7896
  64. (0.00004) RY ( 8) C  2            s( 16.59%)p 0.67( 11.14%)d 4.36( 72.27%)
  65. (0.00001) RY ( 9) C  2            s(  0.11%)p 0.59(  0.06%)d99.99( 99.83%)
  66. (0.00494) RY ( 1) C  3            s(  6.49%)p13.39( 86.86%)d 1.02(  6.65%)
                                         0.0000 -0.0242  0.2536 -0.0054 -0.0551
                                         0.0105  0.8590  0.0147  0.3569  0.1300
                                        -0.0067 -0.1186 -0.0674 -0.1758
  67. (0.00368) RY ( 2) C  3            s( 38.98%)p 1.18( 45.93%)d 0.39( 15.09%)
                                         0.0000 -0.0030  0.6243 -0.0023  0.3349
                                         0.0053 -0.3505  0.0141  0.4734 -0.3240
                                         0.1170 -0.0643 -0.1313 -0.1043
  68. (0.00287) RY ( 3) C  3            s( 16.90%)p 4.45( 75.21%)d 0.47(  7.89%)
                                         0.0000  0.0212  0.4105  0.0032  0.4372
                                        -0.0001  0.2450 -0.0132 -0.7076 -0.1054
                                        -0.1333  0.1229 -0.1488  0.1129
  69. (0.00130) RY ( 4) C  3            s( 24.28%)p 2.89( 70.09%)d 0.23(  5.62%)
                                         0.0000 -0.0114  0.4926  0.0090 -0.8002
                                        -0.0015 -0.0693  0.0052 -0.2360 -0.1621
                                         0.0536  0.1001  0.1009 -0.0829
  70. (0.00038) RY ( 5) C  3            s(  5.89%)p 0.29(  1.69%)d15.69( 92.42%)
                                         0.0000  0.0063  0.2426  0.0221 -0.0727
                                        -0.0132 -0.1046 -0.0017 -0.0049  0.5493
                                         0.2390 -0.4162 -0.1852  0.5982
  71. (0.00030) RY ( 6) C  3            s(  0.90%)p 5.61(  5.06%)d99.99( 94.04%)
                                         0.0000  0.0107  0.0943 -0.0114  0.2010
                                        -0.0114  0.0717 -0.0013 -0.0690  0.0972
                                         0.5757  0.0871  0.7690 -0.0224
  72. (0.00019) RY ( 7) C  3            s(  3.67%)p 1.39(  5.11%)d24.86( 91.22%)
                                         0.0000  0.0054  0.1915  0.0022  0.0355
                                         0.0099 -0.1014 -0.0055  0.1985  0.5317
                                        -0.2561  0.7480  0.0360  0.0562
  73. (0.00010) RY ( 8) C  3            s(  0.36%)p10.85(  3.95%)d99.99( 95.69%)
                                         0.0000 -0.0096  0.0596 -0.0090 -0.0109
                                        -0.0144  0.0876 -0.0040  0.1772 -0.2919
                                        -0.5568 -0.0984  0.4843  0.5634
  74. (0.00004) RY ( 9) C  3            s(  2.69%)p 2.27(  6.11%)d33.91( 91.20%)
  75. (0.00643) RY ( 1) C  4            s( 16.89%)p 3.91( 65.97%)d 1.01( 17.14%)
                                         0.0000  0.0410  0.4090  0.0079  0.1532
                                        -0.0127  0.7712  0.0004  0.2032  0.1707
                                         0.0169  0.1892 -0.2880 -0.1523
[...]
  0 C                -0.1      -0.4      -0.2      -0.2      -0.0      -0.0
  1 C                -0.0       0.5       0.1       0.3       0.1      -0.5
  2 C                -6.3     -17.2      -4.5     -12.3      -2.0       1.1
  3 C               109.2     121.6     145.4     133.7     113.6     -11.9
  4 N                -1.7      -3.3     -13.3      -5.5      -0.1     114.7
  5 C                 1.1       0.5     -24.9      -8.1      -1.9       0.8
  6 N                -0.6      -0.2      -0.1       0.5      -0.1      -0.0
 10 H                 0.0      -0.0      -0.0      -0.0      -0.1      -0.3
 12 H                 0.0      -0.2      -0.1      -0.2       0.2      -0.0
 13 H                -1.5      -1.4      -2.4      -7.7      -9.6       0.1
 14 H                -0.1      -0.0      -0.0      -0.1       0.1      -2.4
 15 H                 0.0      -0.0      -0.2      -0.3      -0.0      -1.4
 16 H                 0.1      -0.0       0.4      -0.3      -0.1       0.0
 17 H                -0.1       0.1      -0.0       0.1      -0.0      -0.0

                     84        85        86        87        88        89   
                   0.00000   0.00000   0.00000   0.00000   0.00000   0.00000
                   0.00155   0.00035   0.00013   0.00005   0.00002   0.00001
                  --------  --------  --------  --------  --------  --------
  1 C                 0.0      -0.7      -0.5      -0.1       0.0      -0.0
  2 C                -0.8       0.3       0.3      -0.1      -0.1      -0.0
  3 C               -11.2     -45.0     -22.0      -1.6      -1.4      -1.3
  4 N               124.4     147.4     133.0     113.8     105.1     108.1
  5 C                 0.9       1.5       0.4      -0.4      -0.0       0.0
 13 H                -0.1      -0.4      -0.3      -0.2      -0.0      -0.1
 14 H                -7.2      -1.6      -6.2      -4.5      -1.6      -3.8
 15 H                -6.1      -1.0      -4.5      -7.0      -1.9      -2.9
 16 H                 0.1      -0.2      -0.0      -0.0      -0.0      -0.0

                     90        91        92        93        94        95   
                   0.00000   0.00000   0.00000   0.00000   0.00000   0.00000
                   0.00000   0.00000   0.00628   0.00376   0.00208   0.00120
                  --------  --------  --------  --------  --------  --------
  0 C                -0.0      -0.0       0.7       0.2      -0.1      -0.2
  1 C                 0.0       0.0      -3.9      -1.2      -1.0       1.9
  2 C                -0.0      -0.1     -47.9      -6.0     -16.3     -14.9
  3 C                -0.8      -0.7     -36.5      -4.2     -21.8     -27.4
  4 N               107.6     106.1       1.1      -0.5      -0.6       1.8
  5 C                -0.0      -0.1     199.3     152.9     191.3     148.8
  6 N                -0.0      -0.0      -8.4      -4.9     -46.7      -5.9
  8 H                -0.0      -0.0      -0.2      -0.3      -0.0      -0.7
 10 H                -0.0      -0.0      -0.3       0.1      -0.2      -0.1
 11 H                -0.0      -0.0      -0.2      -0.1      -0.0       0.0
 12 H                -0.0      -0.0       0.3      -0.0       0.6      -0.1
 13 H                -0.1      -0.0      -0.3       0.1       0.8      -0.4
 14 H                -3.8      -1.8      -0.2       0.1      -0.0      -0.4
 15 H                -2.8      -3.3       0.0      -0.0      -0.1       0.0
 16 H                -0.0      -0.0      -3.1     -35.9      -1.5      -1.4
 17 H                 0.0      -0.0      -0.4      -0.3      -1.5       0.0
 18 H                -0.0      -0.0      -0.2      -0.1      -2.8      -1.1

                     96        97        98        99       100       101   
                   0.00000   0.00000   0.00000   0.00000   0.00000   0.00000
                   0.00092   0.00063   0.00015   0.00010   0.00009   0.00303
                  --------  --------  --------  --------  --------  --------
  0 C                -0.1       0.1       0.0      -0.1      -0.0       0.0
  1 C                 0.1      -1.1       0.1      -0.0       0.3      -0.0
  2 C                -8.1      -4.9      -2.5     -11.5      -4.7       0.4
  3 C                -4.5      -2.3     -12.3     -22.2      -2.4       0.2
  4 N                -0.5      -0.6      -0.1       0.8       0.1      -0.0
  5 C               118.0     114.8     123.5     154.0     117.8      -9.3
  6 N                -3.0      -3.6      -6.5     -15.6      -2.0     112.1
  8 H                 0.0      -0.1      -0.0       0.0       0.0      -0.0
 10 H                -0.2       0.0      -0.0      -0.0      -0.0      -0.0
 12 H                -0.0       0.2      -0.2       0.1       0.1      -0.1
 13 H                 0.1       0.0       0.2      -0.0       0.0      -0.0
 14 H                -0.3       0.0      -0.0       0.1      -0.0      -0.0
 16 H                -1.5      -2.4      -1.9      -4.9      -8.9       0.1
 17 H                -0.1      -0.3      -0.1      -0.3      -0.1      -1.6
 18 H                 0.2       0.2      -0.2      -0.3      -0.2      -1.6

                    102       103       104       105       106       107   
                   0.00000   0.00000   0.00000   0.00000   0.00000   0.00000
                   0.00163   0.00038   0.00011   0.00005   0.00001   0.00001
                  --------  --------  --------  --------  --------  --------
  0 C                 0.0      -0.1      -0.0      -0.0       0.0       0.0
  1 C                 0.0      -0.2      -0.1       0.0      -0.0       0.0
  2 C                -0.4       0.9       0.5       0.0      -0.1      -0.1
  3 C                 1.7       1.1      -0.2      -0.0      -0.0       0.1
  5 C               -15.6     -46.2     -18.5      -1.6      -1.5      -1.2
  6 N               127.9     148.3     130.8     111.7     105.9     108.2
 10 H                -0.0      -0.1      -0.1       0.0      -0.0      -0.0
 12 H                -0.1      -0.3      -0.2      -0.0      -0.0      -0.0
 13 H                 0.0      -0.4      -0.0      -0.0      -0.1      -0.0
 16 H                -0.1      -0.5      -0.1      -0.2       0.0      -0.1
 17 H                -7.5      -1.6      -6.2      -4.2      -2.1      -3.8
 18 H                -5.9      -0.6      -5.5      -5.6      -2.1      -3.1

                    108       109       110       111       112       113   
                   0.00000   0.00000   0.00000   0.00000   0.00000   0.00000
                   0.00000   0.00000   0.00169   0.00017   0.00012   0.00002
                  --------  --------  --------  --------  --------  --------
  0 C                -0.0      -0.0     -34.6      -2.8      -3.3      -7.9
  1 C                 0.0      -0.0       0.6      -0.2      -0.1      -0.2
  2 C                -0.2       0.0      -0.5      -0.0      -0.1      -0.1
  3 C                -0.1       0.0      -0.1      -0.0      -0.0      -0.0
  5 C                -1.2      -0.6       0.0      -0.0      -0.0      -0.0
  6 N               106.3     107.0       0.0      -0.0      -0.0      -0.0
  7 H                -0.0      -0.0     135.9     103.9     104.3     108.6
  8 H                -0.0      -0.0      -0.3      -0.4      -0.4      -0.1
  9 H                -0.0      -0.0      -0.3      -0.3      -0.4      -0.1
 10 H                -0.0      -0.0      -0.3      -0.0      -0.0      -0.0
 11 H                -0.0      -0.0      -0.3      -0.0      -0.0      -0.0
 17 H                -2.9      -2.1       0.0      -0.0      -0.0      -0.0
 18 H                -1.7      -4.2      -0.0      -0.0      -0.0      -0.0

                    114       115       116       117       118       119   
                   0.00000   0.00000   0.00000   0.00000   0.00000   0.00000
                   0.00178   0.00015   0.00011   0.00002   0.00188   0.00016
                  --------  --------  --------  --------  --------  --------
  0 C               -36.0      -3.0      -3.2      -7.9     -33.5      -3.0
  1 C                 0.6      -0.2      -0.1      -0.1       0.5      -0.1
  2 C                 0.2      -0.1       0.0      -0.0      -0.3      -0.0
  5 C                -1.1      -0.0      -0.0      -0.1      -0.0      -0.0
  6 N                -0.2      -0.0      -0.0      -0.0      -0.0      -0.0
  7 H                -0.3      -0.3      -0.4      -0.1      -0.2      -0.3
  8 H               138.4     104.1     104.3     108.5      -0.4      -0.4
  9 H                -0.4      -0.4      -0.4      -0.1     135.4     104.0
 10 H                -0.2      -0.0      -0.0      -0.0      -0.0      -0.1
 11 H                 0.0      -0.1      -0.0      -0.0      -0.3      -0.0
 12 H                -0.0      -0.0      -0.0      -0.0      -1.2      -0.0
 16 H                -0.7      -0.0       0.0      -0.0      -0.0      -0.0
 18 H                -0.2      -0.0      -0.0      -0.0       0.0      -0.0

                    120       121       122       123       124       125   
                   0.00000   0.00000   0.00000   0.00000   0.00000   0.00000
                   0.00012   0.00003   0.00548   0.00015   0.00010   0.00003
                  --------  --------  --------  --------  --------  --------
  0 C                -3.2      -7.9       0.0      -0.1      -0.0      -0.2
  1 C                -0.1      -0.1     -36.2      -3.4      -3.1      -7.8
  2 C                 0.0      -0.0       2.3      -0.1      -0.4      -0.1
  3 C                -0.0      -0.0      -0.7      -0.1      -0.0      -0.0
  4 N                -0.0      -0.0      -0.3      -0.0      -0.0      -0.0
  5 C                -0.0       0.0      -0.7      -0.0      -0.1       0.0
  6 N                -0.0      -0.0      -0.2      -0.0      -0.0      -0.0
  7 H                -0.4      -0.1      -0.3      -0.0      -0.1      -0.0
  8 H                -0.4      -0.1      -0.2      -0.1       0.0      -0.0
  9 H               104.3     108.4      -0.0      -0.0      -0.1      -0.0
 10 H                -0.0      -0.0     140.4     104.4     104.3     108.3
 11 H                -0.0      -0.0      -0.3      -0.5      -0.5      -0.1
 14 H                -0.0      -0.0      -2.4      -0.0       0.0      -0.0
 15 H                -0.0      -0.0      -0.3      -0.0      -0.0      -0.0
 16 H                -0.0      -0.0      -1.2      -0.0      -0.0      -0.0

                    126       127       128       129       130       131   
                   0.00000   0.00000   0.00000   0.00000   0.00000   0.00000
                   0.00364   0.00014   0.00011   0.00003   0.00400   0.00017
                  --------  --------  --------  --------  --------  --------
  0 C                 0.3      -0.1      -0.4      -0.1       0.1      -0.1
  1 C               -31.8      -3.4      -2.9      -8.2      -0.9      -0.1
  2 C                -0.2      -0.0      -0.5      -0.1     -37.6      -2.8
  3 C                 0.1      -0.0      -0.1      -0.1       0.3      -0.3
  4 N                -0.0      -0.0      -0.0      -0.0       0.0      -0.2
  5 C                -0.2      -0.0      -0.1      -0.0       1.2      -0.2
  6 N                -0.0      -0.0      -0.0      -0.0      -0.4      -0.0
  7 H                -0.3      -0.1      -0.0      -0.0      -0.0      -0.0
  9 H                -0.2      -0.1      -0.0      -0.0      -1.2      -0.0
 10 H                -0.3      -0.5      -0.5      -0.0       0.0      -0.1
 11 H               133.4     104.3     104.6     108.6      -0.2      -0.0
 12 H                -0.2      -0.0      -0.0       0.0     140.5     104.0
 13 H                -0.0      -0.0      -0.0      -0.0      -1.0      -0.0
 15 H                -0.4      -0.0      -0.0      -0.0       0.0      -0.0
 17 H                -0.0      -0.0      -0.0      -0.0      -0.4      -0.0
 18 H                -0.0      -0.0      -0.0      -0.0      -0.4      -0.0

                    132       133       134       135       136       137   
                   0.00000   0.00000   0.00000   0.00000   0.00000   0.00000
                   0.00007   0.00003   0.00255   0.00018   0.00008   0.00005
                  --------  --------  --------  --------  --------  --------
  1 C                -0.5       0.3       0.0      -0.0      -0.0       0.0
  2 C                -7.1      -5.6       0.2      -0.3      -0.1      -0.5
  3 C                 0.2      -0.7     -39.3      -2.6      -5.2      -7.0
  4 N                -0.0      -0.0      -0.3      -0.2      -0.9       0.1
  5 C                 0.1      -0.5       0.7      -0.2      -0.1      -0.3
  6 N                -0.1      -0.0      -0.3      -0.0      -0.1      -0.0
 12 H               107.7     106.7      -1.0      -0.0      -0.0       0.0
 13 H                -0.0       0.0     142.9     103.6     106.8     107.9
 17 H                -0.0      -0.0      -2.7      -0.0      -0.1      -0.0

                    138       139       140       141       142       143   
                   0.00000   0.00000   0.00000   0.00000   0.00000   0.00000
                   0.00233   0.00091   0.00035   0.00002   0.00282   0.00084
                  --------  --------  --------  --------  --------  --------
  1 C                 0.0      -0.0      -0.0      -0.0      -0.8      -0.0
  2 C                -0.1       0.0      -0.0       0.0       0.3       0.0
  3 C                -2.1      -0.2      -0.4      -0.3      -3.7      -0.5
  4 N               -10.5      -3.6      -2.9      -5.1      -8.5      -3.6
  5 C                -0.4      -0.1      -0.1       0.0      -0.1       0.0
 10 H                -2.3       0.0       0.0      -0.1      -0.3      -0.0
 11 H                -0.0      -0.0      -0.0      -0.0      -0.4      -0.0
 14 H               119.0     104.4     104.1     105.9      -1.4      -0.3
 15 H                -1.4      -0.3      -0.5      -0.3     115.2     104.5
 16 H                -2.0      -0.1      -0.1      -0.1      -0.0      -0.0

                    144       145       146       147       148       149   
                   0.00000   0.00000   0.00000   0.00000   0.00000   0.00000
                   0.00037   0.00002   0.00254   0.00018   0.00008   0.00005
                  --------  --------  --------  --------  --------  --------
  1 C                -0.0      -0.0      -1.5      -0.0      -0.1      -0.0
  2 C                -0.0      -0.0       0.9      -0.2      -0.0      -0.5
  3 C                -0.3      -0.0       0.2      -0.2      -0.0      -0.4
  4 N                -3.0      -5.4      -0.1      -0.0      -0.1      -0.0
  5 C                -0.1       0.0     -38.1      -2.8      -5.4      -6.6
  6 N                -0.0      -0.0      -0.1      -0.2      -1.0       0.0
  8 H                -0.0      -0.0      -0.7      -0.0      -0.0      -0.0
 10 H                 0.0      -0.0      -1.2      -0.0      -0.0       0.0
 14 H                -0.6      -0.3      -2.1      -0.0      -0.1      -0.0
 15 H               104.1     105.8      -0.0      -0.0      -0.0      -0.0
 16 H                -0.0      -0.0     142.7     103.6     107.1     107.6

                    150       151       152       153       154       155   
                   0.00000   0.00000   0.00000   0.00000   0.00000   0.00000
                   0.00273   0.00086   0.00036   0.00002   0.00319   0.00084
                  --------  --------  --------  --------  --------  --------
  3 C                -0.2      -0.1      -0.1       0.0      -0.1       0.0
  5 C                -2.6      -0.2      -0.4      -0.3      -3.5      -0.5
  6 N                -9.7      -3.5      -2.8      -5.1      -8.3      -3.5
  8 H                -0.0      -0.0      -0.0      -0.0      -0.1      -0.0
 12 H                -0.4      -0.0      -0.0      -0.0      -0.4      -0.0
 13 H                -2.6      -0.1      -0.1      -0.1      -0.0      -0.0
 16 H                -0.0      -0.0      -0.1      -0.0      -0.1      -0.0
 17 H               117.3     104.5     104.2     105.7      -1.7      -0.3
 18 H                -1.7      -0.4      -0.5      -0.3     114.2     104.3

                    156       157   
                   0.00000   0.00000
                   0.00039   0.00002
                  --------  --------
  5 C                -0.3      -0.0
  6 N                -3.0      -5.1
 17 H                -0.6      -0.3
 18 H               104.0     105.5

Storing NBOs: 1971.nbo
                                    *** NBOs were stored ***

                                *** returned from GENNBO program ***

-------
TIMINGS
-------

Total SCF time: 0 days 0 hours 0 min 6 sec 

Total time                  ....       6.649 sec
Sum of individual times     ....       7.233 sec  (108.8%)

Fock matrix formation       ....       4.239 sec  ( 63.8%)
  Coulomb formation         ....       2.200 sec  ( 51.9% of F)
  Split-RI-J                ....       2.192 sec  ( 51.7% of F)
  XC integration            ....       2.034 sec  ( 48.0% of F)
    Basis function eval.    ....       0.688 sec  ( 33.8% of XC)
    Density eval.           ....       0.383 sec  ( 18.8% of XC)
    XC-Functional eval.     ....       0.113 sec  (  5.5% of XC)
    XC-Potential eval.      ....       0.797 sec  ( 39.2% of XC)
Diagonalization             ....       0.033 sec  (  0.5%)
Density matrix formation    ....       0.003 sec  (  0.0%)
Population analysis         ....       1.652 sec  ( 24.8%)
Initial guess               ....       0.447 sec  (  6.7%)
Orbital Transformation      ....       0.000 sec  (  0.0%)
Orbital Orthonormalization  ....       0.000 sec  (  0.0%)
DIIS solution               ....       0.009 sec  (  0.1%)
SOSCF solution              ....       0.014 sec  (  0.2%)
Grid generation             ....       0.836 sec  ( 12.6%)
           ************************************************************
           *              Shut down parallel processing               *
           ************************************************************

-------------------------   --------------------
FINAL SINGLE POINT ENERGY      -306.586302944196
-------------------------   --------------------


                            ***************************************
                            *     ORCA property calculations      *
                            ***************************************

                                    ---------------------
                                    Active property flags
                                    ---------------------
   (+) Dipole Moment


------------------------------------------------------------------------------
                       ORCA ELECTRIC PROPERTIES CALCULATION
------------------------------------------------------------------------------

Dipole Moment Calculation                       ... on
Quadrupole Moment Calculation                   ... off
Polarizability Calculation                      ... off
GBWName                                         ... 1971.gbw
Electron density file                           ... 1971.scfp.tmp

-------------
DIPOLE MOMENT
-------------
                                X             Y             Z
Electronic contribution:      1.28864      -4.32450       1.03625
Nuclear contribution   :     -1.69014       4.87364      -0.93591
                        -----------------------------------------
Total Dipole Moment    :     -0.40150       0.54913       0.10034
                        -----------------------------------------
Magnitude (a.u.)       :      0.68762
Magnitude (Debye)      :      1.74779


Timings for individual modules:

Sum of individual times         ...        7.912 sec (=   0.132 min)
GTO integral calculation        ...        0.481 sec (=   0.008 min)   6.1 %
SCF iterations                  ...        7.431 sec (=   0.124 min)  93.9 %
                             ****ORCA TERMINATED NORMALLY****
TOTAL RUN TIME: 0 days 0 hours 0 minutes 8 seconds 317 msec
