
                                 *****************
                                 * O   R   C   A *
                                 *****************

           --- An Ab Initio, DFT and Semiempirical electronic structure package ---

                  #######################################################
                  #                        -***-                        #
                  #  Department of molecular theory and spectroscopy    #
                  #              Directorship: Frank Neese              #
                  # Max Planck Institute for Chemical Energy Conversion #
                  #                  D-45470 Muelheim/Ruhr              #
                  #                       Germany                       #
                  #                                                     #
                  #                  All rights reserved                #
                  #                        -***-                        #
                  #######################################################


                         Program Version 3.0.3 - RELEASE   -


 With contributions from (in alphabetic order):
   Ute Becker             : Parallelization
   Dmytro Bykov           : SCF Hessian
   Dmitry Ganyushin       : Spin-Orbit,Spin-Spin,Magnetic field MRCI
   Andreas Hansen         : Spin unrestricted coupled pair/coupled cluster methods
   Dimitrios Liakos       : Extrapolation schemes; parallel MDCI
   Robert Izsak           : Overlap fitted RIJCOSX, COSX-SCS-MP3
   Christian Kollmar      : KDIIS, OOCD, Brueckner-CCSD(T), CCSD density
   Simone Kossmann        : Meta GGA functionals, TD-DFT gradient, OOMP2, MP2 Hessian
   Taras Petrenko         : DFT Hessian,TD-DFT gradient, ASA and ECA modules, normal mode analysis, Resonance Raman, ABS, FL, XAS/XES, NRVS
   Christoph Reimann      : Effective Core Potentials
   Michael Roemelt        : Restricted open shell CIS
   Christoph Riplinger    : Improved optimizer, TS searches, QM/MM, DLPNO-CCSD
   Barbara Sandhoefer     : DKH picture change effects
   Igor Schapiro          : Molecular dynamics
   Kantharuban Sivalingam : CASSCF convergence, NEVPT2
   Boris Wezisla          : Elementary symmetry handling
   Frank Wennmohs         : Technical directorship


 We gratefully acknowledge several colleagues who have allowed us to
 interface, adapt or use parts of their codes:
   Stefan Grimme, W. Hujo, H. Kruse, T. Risthaus : VdW corrections, initial TS optimization,
                                                   DFT functionals, gCP
   Ed Valeev                                     : LibInt (2-el integral package), F12 methods
   Garnet Chan, S. Sharma, R. Olivares           : DMRG
   Ulf Ekstrom                                   : XCFun DFT Library
   Mihaly Kallay                                 : mrcc  (arbitrary order and MRCC methods)
   Andreas Klamt, Michael Diedenhofen            : otool_cosmo (COSMO solvation model)
   Frank Weinhold                                : gennbo (NPA and NBO analysis)
   Christopher J. Cramer and Donald G. Truhlar   : smd solvation model


 Your calculation uses the libint2 library for the computation of 2-el integrals
 For citations please refer to: http://libint.valeyev.net

 This ORCA versions uses:
   CBLAS   interface :  Fast vector & matrix operations
   LAPACKE interface :  Fast linear algebra routines
   SCALAPACK package :  Parallel linear algebra routines


Your calculation utilizes the basis: Ahlrichs-VDZ
Cite in your paper:
H - Kr: A. Schaefer, H. Horn and R. Ahlrichs, J. Chem. Phys. 97, 2571 (1992).

Your calculation utilizes the basis: Ahlrichs SVPalls1+f
Cite in your paper:
Rb - Xe: A. Schaefer, C. Huber and R. Ahlrichs, J. Chem. Phys. 100, 5829 (1994).

================================================================================
                                        WARNINGS
                       Please study these warnings very carefully!
================================================================================
Now building the actual basis set


INFO   : the flag for use of LIBINT has been found!

================================================================================
                                       INPUT FILE
================================================================================
NAME = 2009.inp
|  1> ! RI PBE def2-SVP def2-SVP/J NBO PAL2
|  2> % maxcore 2000
|  3> % output
|  4>     # printlevel mini
|  5>     print[ P_Basis ] 0
|  6>     print[ P_SCFInfo ] 1
|  7>     print[ P_SCFIterInfo ] 1
|  8>     print[ P_OrbEn ] 0
|  9>     print[ P_Cartesian ] 0
| 10> end
| 11> *xyz 0 1
| 12>  C        0.8536420000    -0.3085720000    -0.3375550000 
| 13>  C        2.2976870000    -0.0064400000     0.0292260000 
| 14>  C        2.8417590000    -0.6444790000     1.3038710000 
| 15>  N        4.2326690000    -0.2842140000     1.5527040000 
| 16>  C        2.0573080000    -0.4639500000     2.6250090000 
| 17>  C        2.3800500000    -1.9272450000     2.9793200000 
| 18>  C        2.7024430000    -2.1734750000     1.4939370000 
| 19>  H        0.5784970000     0.2006760000    -1.2641550000 
| 20>  H        0.1584410000     0.0268980000     0.4355270000 
| 21>  H        0.6881430000    -1.3771320000    -0.4934010000 
| 22>  H        2.4252270000     1.0800260000     0.1232080000 
| 23>  H        2.9507840000    -0.3129870000    -0.7984210000 
| 24>  H        4.3222500000     0.7237390000     1.6279740000 
| 25>  H        4.8113310000    -0.5722670000     0.7705070000 
| 26>  H        0.9898820000    -0.3164600000     2.4515620000 
| 27>  H        2.4206570000     0.3173420000     3.2956540000 
| 28>  H        1.5803020000    -2.5221360000     3.4222940000 
| 29>  H        3.2709380000    -2.0026520000     3.6014300000 
| 30>  H        1.8430560000    -2.5772660000     0.9557530000 
| 31>  H        3.5854140000    -2.7691150000     1.2535650000 
| 32> *
| 33> 
| 34>                          ****END OF INPUT****
================================================================================

                       ****************************
                       * Single Point Calculation *
                       ****************************

--------------------------------
INTERNAL COORDINATES (ANGSTROEM)
--------------------------------
 C      0   0   0   0.000000     0.000     0.000
 C      1   0   0   1.520223     0.000     0.000
 C      2   1   0   1.525722   117.205     0.000
 N      3   2   1   1.458197   112.296   180.005
 C      3   2   1   1.547049   118.935   307.481
 C      5   3   2   1.539783    88.815   140.422
 C      6   5   3   1.539782    88.503   341.750
 H      1   2   3   1.092532   110.561   179.999
 H      1   2   3   1.092474   111.883    60.512
 H      1   2   3   1.092474   111.883   299.487
 H      2   1   3   1.097956   109.126   237.565
 H      2   1   3   1.097956   109.127   122.436
 H      4   3   2   1.014721   110.016    58.688
 H      4   3   2   1.014720   110.016   301.311
 H      5   3   2   1.091437   112.084    27.408
 H      5   3   2   1.091881   116.058   261.218
 H      6   5   3   1.090742   117.263   221.615
 H      6   5   3   1.089215   111.633    94.478
 H      7   6   5   1.091437   111.714   264.888
 H      7   6   5   1.091881   117.964   137.360

---------------------------
INTERNAL COORDINATES (A.U.)
---------------------------
 C      0   0   0   0.000000     0.000     0.000
 C      1   0   0   2.872805     0.000     0.000
 C      2   1   0   2.883197   117.205     0.000
 N      3   2   1   2.755594   112.296   180.005
 C      3   2   1   2.923498   118.935   307.481
 C      5   3   2   2.909768    88.815   140.422
 C      6   5   3   2.909767    88.503   341.750
 H      1   2   3   2.064586   110.561   179.999
 H      1   2   3   2.064477   111.883    60.512
 H      1   2   3   2.064476   111.883   299.487
 H      2   1   3   2.074836   109.126   237.565
 H      2   1   3   2.074835   109.127   122.436
 H      4   3   2   1.917546   110.016    58.688
 H      4   3   2   1.917543   110.016   301.311
 H      5   3   2   2.062518   112.084    27.408
 H      5   3   2   2.063356   116.058   261.218
 H      6   5   3   2.061204   117.263   221.615
 H      6   5   3   2.058317   111.633    94.478
 H      7   6   5   2.062517   111.714   264.888
 H      7   6   5   2.063356   117.964   137.360



           ************************************************************
           *        Program running with 2 parallel MPI-processes     *
           *              working on a common directory               *
           ************************************************************
------------------------------------------------------------------------------
                           ORCA GTO INTEGRAL CALCULATION
                           -- RI-GTO INTEGRALS CHOSEN --
------------------------------------------------------------------------------

                         BASIS SET STATISTICS AND STARTUP INFO

Gaussian basis set:
 # of primitive gaussian shells          ...  149
 # of primitive gaussian functions       ...  259
 # of contracted shells                  ...   81
 # of contracted basis functions         ...  163
 Highest angular momentum                ...    2
 Maximum contraction depth               ...    5
Auxiliary gaussian basis set:
 # of primitive gaussian shells          ...  272
 # of primitive gaussian functions       ...  698
 # of contracted shells                  ...  170
 # of contracted aux-basis functions     ...  486
 Highest angular momentum                ...    4
 Maximum contraction depth               ...    7
Ratio of auxiliary to basis functions    ...  2.98
Integral package used                  ... LIBINT
 One Electron integrals                  ... done
 Ordering auxiliary basis shells         ... done
 Integral threshhold             Thresh  ...  1.000e-10
 Primitive cut-off               TCut    ...  1.000e-11
 Pre-screening matrix                    ... done
 Shell pair data                         ... 
 Ordering of the shell pairs             ... done (   0.001 sec) 3248 of 3321 pairs
 Determination of significant pairs      ... done (   0.000 sec)
 Creation of shell pair data             ... done (   0.001 sec)
 Storage of shell pair data              ... done (   0.002 sec)
 Shell pair data done in (   0.003 sec)
 Computing two index integrals           ... done
 Cholesky decomposition of the V-matrix  ... done


Timings:
 Total evaluation time                   ...   0.172 sec (  0.003 min)
 One electron matrix time                ...   0.025 sec (  0.000 min) = 14.5%
 Schwartz matrix evaluation time         ...   0.078 sec (  0.001 min) = 45.1%
 Two index repulsion integral time       ...   0.005 sec (  0.000 min) =  2.8%
 Cholesky decomposition of V             ...   0.005 sec (  0.000 min) =  2.7%
 Three index repulsion integral time     ...   0.000 sec (  0.000 min) =  0.0%

           ************************************************************
           *              Shut down parallel processing               *
           ************************************************************


           ************************************************************
           *        Program running with 2 parallel MPI-processes     *
           *              working on a common directory               *
           ************************************************************
-------------------------------------------------------------------------------
                                 ORCA SCF
-------------------------------------------------------------------------------

------------
SCF SETTINGS
------------
Hamiltonian:
 Density Functional     Method          .... DFT(GTOs)
 Exchange Functional    Exchange        .... PBE
   PBE kappa parameter  XKappa          ....  0.804000
 Correlation Functional Correlation     .... PBE
 LDA part of GGA corr.  LDAOpt          .... PW91-LDA
 Gradients option       PostSCFGGA      .... off
   NL short-range parameter             ....  6.400000
 RI-approximation to the Coulomb term is turned on
   Number of auxiliary basis functions  .... 486


General Settings:
 Integral files         IntName         .... 2009
 Hartree-Fock type      HFTyp           .... RHF
 Total Charge           Charge          ....    0
 Multiplicity           Mult            ....    1
 Number of Electrons    NEL             ....   56
 Basis Dimension        Dim             ....  163
 Nuclear Repulsion      ENuc            ....    331.2306469265 Eh

Convergence Acceleration:
 DIIS                   CNVDIIS         .... on
   Start iteration      DIISMaxIt       ....    12
   Startup error        DIISStart       ....  0.200000
   # of expansion vecs  DIISMaxEq       ....     5
   Bias factor          DIISBfac        ....   1.050
   Max. coefficient     DIISMaxC        ....  10.000
 Newton-Raphson         CNVNR           .... off
 SOSCF                  CNVSOSCF        .... on
   Start iteration      SOSCFMaxIt      ....   150
   Startup grad/error   SOSCFStart      ....  0.003300
 Level Shifting         CNVShift        .... on
   Level shift para.    LevelShift      ....    0.2500
   Turn off err/grad.   ShiftErr        ....    0.0010
 Zerner damping         CNVZerner       .... off
 Static damping         CNVDamp         .... on
   Fraction old density DampFac         ....    0.7000
   Max. Damping (<1)    DampMax         ....    0.9800
   Min. Damping (>=0)   DampMin         ....    0.0000
   Turn off err/grad.   DampErr         ....    0.1000
 Fernandez-Rico         CNVRico         .... off

SCF Procedure:
 Maximum # iterations   MaxIter         ....   125
 SCF integral mode      SCFMode         .... Direct
   Integral package                     .... LIBINT
 Reset frequeny         DirectResetFreq ....    20
 Integral Threshold     Thresh          ....  1.000e-10 Eh
 Primitive CutOff       TCut            ....  1.000e-11 Eh

Convergence Tolerance:
 Convergence Check Mode ConvCheckMode   .... Total+1el-Energy
 Energy Change          TolE            ....  1.000e-06 Eh
 1-El. energy change                    ....  1.000e-03 Eh
 Orbital Gradient       TolG            ....  5.000e-05
 Orbital Rotation angle TolX            ....  5.000e-05
 DIIS Error             TolErr          ....  1.000e-06


Diagonalization of the overlap matrix:
Smallest eigenvalue                        ... 5.698e-04
Time for diagonalization                   ...    0.017 sec
Threshold for overlap eigenvalues          ... 1.000e-08
Number of eigenvalues below threshold      ... 0
Time for construction of square roots      ...    0.003 sec
Total time needed                          ...    0.020 sec

-------------------
DFT GRID GENERATION
-------------------

General Integration Accuracy     IntAcc      ...  4.340
Radial Grid Type                 RadialGrid  ... Gauss-Chebyshev
Angular Grid (max. acc.)         AngularGrid ... Lebedev-110
Angular grid pruning method      GridPruning ... 3 (G Style)
Weight generation scheme         WeightScheme... Becke
Basis function cutoff            BFCut       ...    1.0000e-10
Integration weight cutoff        WCut        ...    1.0000e-14
Grids for H and He will be reduced by one unit

# of grid points (after initial pruning)     ...  21960 (   0.0 sec)
# of grid points (after weights+screening)   ...  19940 (   0.1 sec)
nearest neighbour list constructed           ...    0.0 sec
Grid point re-assignment to atoms done       ...    0.0 sec
Grid point division into batches done        ...    0.0 sec
Reduced shell lists constructed in    0.1 sec

Total number of grid points                  ...    19940
Total number of batches                      ...      322
Average number of points per batch           ...       61
Average number of grid points per atom       ...      997
Average number of shells per batch           ...    64.23 (79.29%)
Average number of basis functions per batch  ...   126.87 (77.83%)
Average number of large shells per batch     ...    51.28 (79.85%)
Average number of large basis fcns per batch ...    98.56 (77.68%)
Maximum spatial batch extension              ...  19.53, 18.49, 15.16 au
Average spatial batch extension              ...   1.40,  1.32,  1.25 au

Time for grid setup =    0.176 sec

------------------------------
INITIAL GUESS: MODEL POTENTIAL
------------------------------
Loading Hartree-Fock densities                     ... done
Calculating cut-offs                               ... done
Setting up the integral package                    ... done
Initializing the effective Hamiltonian             ... done
Starting the Coulomb interaction                   ... done (   0.1 sec)
Reading the grid                                   ... done
Mapping shells                                     ... done
Starting the XC term evaluation                    ... done (   0.2 sec)
  promolecular density results
     # of electrons  =     56.014965536
     EX              =    -41.093593143
     EC              =     -1.840098535
     EX+EC           =    -42.933691678
Transforming the Hamiltonian                       ... done (   0.0 sec)
Diagonalizing the Hamiltonian                      ... done (   0.0 sec)
Back transforming the eigenvectors                 ... done (   0.0 sec)
Now organizing SCF variables                       ... done
                      ------------------
                      INITIAL GUESS DONE (   0.5 sec)
                      ------------------
--------------
SCF ITERATIONS
--------------
ITER       Energy         Delta-E        Max-DP      RMS-DP      [F,P]     Damp
               ***  Starting incremental Fock matrix formation  ***
  0   -290.3394273686   0.000000000000 0.08735267  0.00283114  0.2281380 0.7000
  1   -290.4599786813  -0.120551312644 0.04729856  0.00199967  0.0913405 0.7000
                               ***Turning on DIIS***
  2   -290.4994162341  -0.039437552778 0.05760247  0.00289760  0.0212178 0.0000
  3   -290.5582075324  -0.058791298349 0.03197536  0.00140515  0.0584661 0.0000
  4   -290.5775551122  -0.019347579772 0.01116990  0.00040998  0.0110248 0.0000
  5   -290.5785188415  -0.000963729295 0.00554746  0.00017876  0.0042061 0.0000
                      *** Initiating the SOSCF procedure ***
                           *** Shutting down DIIS ***
                      *** Re-Reading the Fockian *** 
                      *** Removing any level shift *** 
ITER      Energy       Delta-E        Grad      Rot      Max-DP    RMS-DP
  6   -290.57860291  -0.0000840703  0.000382  0.000382  0.003672  0.000106
               *** Restarting incremental Fock matrix formation ***
  7   -290.57861190  -0.0000089907  0.000144  0.000290  0.000567  0.000031
  8   -290.57861042   0.0000014866  0.000246  0.000159  0.000388  0.000018
                  ***Gradient check signals convergence***
              ***Rediagonalizing the Fockian in SOSCF/NRSCF***

               *****************************************************
               *                     SUCCESS                       *
               *           SCF CONVERGED AFTER   9 CYCLES          *
               *****************************************************

Setting up the final grid:

General Integration Accuracy     IntAcc      ...  4.670
Radial Grid Type                 RadialGrid  ... Gauss-Chebyshev
Angular Grid (max. acc.)         AngularGrid ... Lebedev-302
Angular grid pruning method      GridPruning ... 3 (G Style)
Weight generation scheme         WeightScheme... Becke
Basis function cutoff            BFCut       ...    1.0000e-10
Integration weight cutoff        WCut        ...    1.0000e-14
Grids for H and He will be reduced by one unit

# of grid points (after initial pruning)     ...  87606 (   0.0 sec)
# of grid points (after weights+screening)   ...  78138 (   0.2 sec)
nearest neighbour list constructed           ...    0.0 sec
Grid point re-assignment to atoms done       ...    0.0 sec
Grid point division into batches done        ...    0.2 sec
Reduced shell lists constructed in    0.5 sec

Total number of grid points                  ...    78138
Total number of batches                      ...     1233
Average number of points per batch           ...       63
Average number of grid points per atom       ...     3907
Average number of shells per batch           ...    60.00 (74.07%)
Average number of basis functions per batch  ...   117.55 (72.12%)
Average number of large shells per batch     ...    46.90 (78.18%)
Average number of large basis fcns per batch ...    89.01 (75.73%)
Maximum spatial batch extension              ...  18.61, 18.68, 16.05 au
Average spatial batch extension              ...   0.96,  0.93,  0.92 au

Final grid set up in    0.7 sec
Final integration                            ... done (   0.6 sec)
Change in XC energy                          ...     0.002031094
Integrated number of electrons               ...    56.000047188
Previous integrated no of electrons          ...    56.011222600

----------------
TOTAL SCF ENERGY
----------------

Total Energy       :         -290.57658167 Eh           -7906.99077 eV

Components:
Nuclear Repulsion  :          331.23064693 Eh            9013.24413 eV
Electronic Energy  :         -621.80722860 Eh          -16920.23490 eV

One Electron Energy:        -1047.71123428 Eh          -28509.67209 eV
Two Electron Energy:          425.90400568 Eh           11589.43719 eV

Virial components:
Potential Energy   :         -578.02356999 Eh          -15728.82098 eV
Kinetic Energy     :          287.44698832 Eh            7821.83021 eV
Virial Ratio       :            2.01088755


DFT components:
N(Alpha)           :       28.000023593912 electrons
N(Beta)            :       28.000023593912 electrons
N(Total)           :       56.000047187823 electrons
E(X)               :      -42.089154767300 Eh       
E(C)               :       -1.851972179479 Eh       
E(XC)              :      -43.941126946779 Eh       

---------------
SCF CONVERGENCE
---------------

  Last Energy change         ...   -2.3509e-06  Tolerance :   1.0000e-06
  Last MAX-Density change    ...    8.4951e-05  Tolerance :   1.0000e-05
  Last RMS-Density change    ...    2.4184e-06  Tolerance :   1.0000e-06
  Last Orbital Gradient      ...    1.1402e-05  Tolerance :   5.0000e-05
  Last Orbital Rotation      ...    1.7420e-05  Tolerance :   5.0000e-05

             **** THE GBW FILE WAS UPDATED (2009.gbw) ****
             **** DENSITY FILE WAS UPDATED (2009.scfp.tmp) ****
             **** ENERGY FILE WAS UPDATED (2009.en.tmp) ****

                    ********************************
                    * MULLIKEN POPULATION ANALYSIS *
                    ********************************

-----------------------
MULLIKEN ATOMIC CHARGES
-----------------------
   0 C :   -0.033913
   1 C :    0.069881
   2 C :   -0.354775
   3 N :   -0.138602
   4 C :    0.095222
   5 C :    0.010938
   6 C :    0.105501
   7 H :    0.014328
   8 H :    0.024835
   9 H :    0.023656
  10 H :   -0.000088
  11 H :   -0.005823
  12 H :    0.082366
  13 H :    0.083160
  14 H :    0.000526
  15 H :    0.000348
  16 H :    0.003764
  17 H :    0.021835
  18 H :   -0.001464
  19 H :   -0.001696
Sum of atomic charges:   -0.0000000

--------------------------------
MULLIKEN REDUCED ORBITAL CHARGES
--------------------------------
  0 C s       :     2.995384  s :     2.995384
      pz      :     1.002924  p :     3.012600
      px      :     0.998608
      py      :     1.011068
      dz2     :     0.004236  d :     0.025929
      dxz     :     0.006961
      dyz     :     0.003433
      dx2y2   :     0.007160
      dxy     :     0.004140
  1 C s       :     2.958277  s :     2.958277
      pz      :     0.976432  p :     2.939087
      px      :     0.983299
      py      :     0.979356
      dz2     :     0.006622  d :     0.032754
      dxz     :     0.009392
      dyz     :     0.003574
      dx2y2   :     0.008788
      dxy     :     0.004379
  2 C s       :     3.261715  s :     3.261715
      pz      :     1.039827  p :     3.026306
      px      :     0.959862
      py      :     1.026618
      dz2     :     0.013888  d :     0.066755
      dxz     :     0.015939
      dyz     :     0.010554
      dx2y2   :     0.015474
      dxy     :     0.010899
  3 N s       :     3.395690  s :     3.395690
      pz      :     1.484762  p :     3.724507
      px      :     1.091695
      py      :     1.148050
      dz2     :     0.004063  d :     0.018405
      dxz     :     0.005296
      dyz     :     0.000830
      dx2y2   :     0.006542
      dxy     :     0.001675
  4 C s       :     2.971571  s :     2.971571
      pz      :     0.954485  p :     2.900566
      px      :     0.950022
      py      :     0.996059
      dz2     :     0.005679  d :     0.032641
      dxz     :     0.004530
      dyz     :     0.009097
      dx2y2   :     0.008834
      dxy     :     0.004500
  5 C s       :     2.992400  s :     2.992400
      pz      :     1.001100  p :     2.962716
      px      :     0.993049
      py      :     0.968567
      dz2     :     0.006989  d :     0.033946
      dxz     :     0.007877
      dyz     :     0.007753
      dx2y2   :     0.005619
      dxy     :     0.005707
  6 C s       :     2.967217  s :     2.967217
      pz      :     0.987872  p :     2.894695
      px      :     0.956223
      py      :     0.950599
      dz2     :     0.007177  d :     0.032588
      dxz     :     0.006386
      dyz     :     0.006971
      dx2y2   :     0.005522
      dxy     :     0.006533
  7 H s       :     0.962008  s :     0.962008
      pz      :     0.011257  p :     0.023663
      px      :     0.005122
      py      :     0.007284
  8 H s       :     0.951229  s :     0.951229
      pz      :     0.009809  p :     0.023936
      px      :     0.007806
      py      :     0.006321
  9 H s       :     0.952373  s :     0.952373
      pz      :     0.005965  p :     0.023971
      px      :     0.004784
      py      :     0.013223
 10 H s       :     0.977544  s :     0.977544
      pz      :     0.004966  p :     0.022544
      px      :     0.004713
      py      :     0.012865
 11 H s       :     0.983220  s :     0.983220
      pz      :     0.009495  p :     0.022603
      px      :     0.007223
      py      :     0.005885
 12 H s       :     0.871373  s :     0.871373
      pz      :     0.014537  p :     0.046261
      px      :     0.009178
      py      :     0.022546
 13 H s       :     0.870587  s :     0.870587
      pz      :     0.019003  p :     0.046253
      px      :     0.014350
      py      :     0.012900
 14 H s       :     0.976557  s :     0.976557
      pz      :     0.005118  p :     0.022917
      px      :     0.012891
      py      :     0.004908
 15 H s       :     0.977109  s :     0.977109
      pz      :     0.007850  p :     0.022543
      px      :     0.005862
      py      :     0.008831
 16 H s       :     0.973778  s :     0.973778
      pz      :     0.005992  p :     0.022458
      px      :     0.009479
      py      :     0.006986
 17 H s       :     0.955271  s :     0.955271
      pz      :     0.007314  p :     0.022894
      px      :     0.010947
      py      :     0.004633
 18 H s       :     0.978455  s :     0.978455
      pz      :     0.006942  p :     0.023009
      px      :     0.010267
      py      :     0.005800
 19 H s       :     0.979094  s :     0.979094
      pz      :     0.004775  p :     0.022602
      px      :     0.010770
      py      :     0.007057


                     *******************************
                     * LOEWDIN POPULATION ANALYSIS *
                     *******************************

----------------------
LOEWDIN ATOMIC CHARGES
----------------------
   0 C :   -0.070813
   1 C :   -0.060395
   2 C :   -0.020478
   3 N :   -0.082468
   4 C :   -0.030112
   5 C :   -0.030456
   6 C :   -0.028791
   7 H :    0.028535
   8 H :    0.023897
   9 H :    0.023717
  10 H :    0.020762
  11 H :    0.019981
  12 H :    0.046956
  13 H :    0.047103
  14 H :    0.019605
  15 H :    0.016045
  16 H :    0.014839
  17 H :    0.027112
  18 H :    0.019495
  19 H :    0.015466

-------------------------------
LOEWDIN REDUCED ORBITAL CHARGES
-------------------------------
  0 C s       :     2.836030  s :     2.836030
      pz      :     1.064760  p :     3.165190
      px      :     1.032236
      py      :     1.068193
      dz2     :     0.011872  d :     0.069594
      dxz     :     0.018229
      dyz     :     0.009555
      dx2y2   :     0.020680
      dxy     :     0.009257
  1 C s       :     2.847828  s :     2.847828
      pz      :     1.041236  p :     3.123655
      px      :     1.031343
      py      :     1.051075
      dz2     :     0.018363  d :     0.088912
      dxz     :     0.024771
      dyz     :     0.010479
      dx2y2   :     0.025108
      dxy     :     0.010191
  2 C s       :     2.850021  s :     2.850021
      pz      :     1.035427  p :     3.020426
      px      :     0.951196
      py      :     1.033803
      dz2     :     0.033247  d :     0.150030
      dxz     :     0.037105
      dyz     :     0.021682
      dx2y2   :     0.037447
      dxy     :     0.020549
  3 N s       :     3.131013  s :     3.131013
      pz      :     1.503208  p :     3.907051
      px      :     1.174941
      py      :     1.228902
      dz2     :     0.008210  d :     0.044404
      dxz     :     0.012017
      dyz     :     0.001301
      dx2y2   :     0.017627
      dxy     :     0.005248
  4 C s       :     2.849815  s :     2.849815
      pz      :     1.023261  p :     3.095319
      px      :     1.051083
      py      :     1.020976
      dz2     :     0.015865  d :     0.084978
      dxz     :     0.013167
      dyz     :     0.021779
      dx2y2   :     0.024505
      dxy     :     0.009662
  5 C s       :     2.840834  s :     2.840834
      pz      :     1.014854  p :     3.102913
      px      :     1.070375
      py      :     1.017684
      dz2     :     0.019523  d :     0.086709
      dxz     :     0.021038
      dyz     :     0.016260
      dx2y2   :     0.015693
      dxy     :     0.014195
  6 C s       :     2.849782  s :     2.849782
      pz      :     1.022454  p :     3.093981
      px      :     1.062618
      py      :     1.008909
      dz2     :     0.021232  d :     0.085028
      dxz     :     0.015562
      dyz     :     0.014519
      dx2y2   :     0.015783
      dxy     :     0.017931
  7 H s       :     0.904618  s :     0.904618
      pz      :     0.032222  p :     0.066846
      px      :     0.015690
      py      :     0.018935
  8 H s       :     0.908641  s :     0.908641
      pz      :     0.027343  p :     0.067462
      px      :     0.024414
      py      :     0.015705
  9 H s       :     0.908850  s :     0.908850
      pz      :     0.013936  p :     0.067433
      px      :     0.014245
      py      :     0.039253
 10 H s       :     0.912067  s :     0.912067
      pz      :     0.013937  p :     0.067171
      px      :     0.013478
      py      :     0.039756
 11 H s       :     0.912868  s :     0.912868
      pz      :     0.029654  p :     0.067151
      px      :     0.022347
      py      :     0.015150
 12 H s       :     0.829659  s :     0.829659
      pz      :     0.035801  p :     0.123385
      px      :     0.022443
      py      :     0.065141
 13 H s       :     0.829421  s :     0.829421
      pz      :     0.058866  p :     0.123476
      px      :     0.037926
      py      :     0.026684
 14 H s       :     0.910038  s :     0.910038
      pz      :     0.015689  p :     0.070357
      px      :     0.040017
      py      :     0.014650
 15 H s       :     0.914684  s :     0.914684
      pz      :     0.025272  p :     0.069270
      px      :     0.016339
      py      :     0.027659
 16 H s       :     0.916774  s :     0.916774
      pz      :     0.018437  p :     0.068387
      px      :     0.028142
      py      :     0.021808
 17 H s       :     0.903212  s :     0.903212
      pz      :     0.022314  p :     0.069677
      px      :     0.033213
      py      :     0.014150
 18 H s       :     0.910166  s :     0.910166
      pz      :     0.021242  p :     0.070339
      px      :     0.030731
      py      :     0.018366
 19 H s       :     0.915320  s :     0.915320
      pz      :     0.015053  p :     0.069214
      px      :     0.031443
      py      :     0.022719


                      *****************************
                      * MAYER POPULATION ANALYSIS *
                      *****************************

  NA   - Mulliken gross atomic population
  ZA   - Total nuclear charge
  QA   - Mulliken gross atomic charge
  VA   - Mayer's total valence
  BVA  - Mayer's bonded valence
  FA   - Mayer's free valence

  ATOM       NA         ZA         QA         VA         BVA        FA
  0 C      6.0339     6.0000    -0.0339     4.0234     4.0234    -0.0000
  1 C      5.9301     6.0000     0.0699     4.0056     4.0056    -0.0000
  2 C      6.3548     6.0000    -0.3548     4.3370     4.3370     0.0000
  3 N      7.1386     7.0000    -0.1386     3.0433     3.0433     0.0000
  4 C      5.9048     6.0000     0.0952     3.9930     3.9930    -0.0000
  5 C      5.9891     6.0000     0.0109     4.1419     4.1419    -0.0000
  6 C      5.8945     6.0000     0.1055     3.9930     3.9930    -0.0000
  7 H      0.9857     1.0000     0.0143     0.9846     0.9846     0.0000
  8 H      0.9752     1.0000     0.0248     0.9948     0.9948     0.0000
  9 H      0.9763     1.0000     0.0237     0.9948     0.9948    -0.0000
 10 H      1.0001     1.0000    -0.0001     0.9908     0.9908     0.0000
 11 H      1.0058     1.0000    -0.0058     0.9920     0.9920     0.0000
 12 H      0.9176     1.0000     0.0824     1.0084     1.0084     0.0000
 13 H      0.9168     1.0000     0.0832     1.0072     1.0072     0.0000
 14 H      0.9995     1.0000     0.0005     0.9911     0.9911    -0.0000
 15 H      0.9997     1.0000     0.0003     0.9894     0.9894    -0.0000
 16 H      0.9962     1.0000     0.0038     0.9710     0.9710    -0.0000
 17 H      0.9782     1.0000     0.0218     0.9915     0.9915     0.0000
 18 H      1.0015     1.0000    -0.0015     0.9908     0.9908    -0.0000
 19 H      1.0017     1.0000    -0.0017     0.9883     0.9883    -0.0000

  Mayer bond orders larger than 0.1
B(  0-C ,  1-C ) :   1.1065 B(  0-C ,  7-H ) :   0.9489 B(  0-C ,  8-H ) :   0.9605 
B(  0-C ,  9-H ) :   0.9622 B(  1-C ,  2-C ) :   1.0294 B(  1-C , 10-H ) :   0.9238 
B(  1-C , 11-H ) :   0.9195 B(  2-C ,  3-N ) :   1.0233 B(  2-C ,  4-C ) :   1.0601 
B(  2-C ,  6-C ) :   1.0623 B(  3-N , 12-H ) :   0.9668 B(  3-N , 13-H ) :   0.9654 
B(  4-C ,  5-C ) :   1.1334 B(  4-C , 14-H ) :   0.9123 B(  4-C , 15-H ) :   0.9177 
B(  5-C ,  6-C ) :   1.1332 B(  5-C , 16-H ) :   0.9304 B(  5-C , 17-H ) :   0.9241 
B(  6-C , 18-H ) :   0.9105 B(  6-C , 19-H ) :   0.9189 


 *********************************** NBO 6.0 ***********************************
             N A T U R A L   A T O M I C   O R B I T A L   A N D
          N A T U R A L   B O N D   O R B I T A L   A N A L Y S I S
 ***************************** Kiya KiyaLu (100703) ****************************
  (c) Copyright 1996-2015 Board of Regents of the University of Wisconsin System
      on behalf of the Theoretical Chemistry Institute.  All rights reserved.

          Cite this program as:

          NBO 6.0.  E. D. Glendening, J. K. Badenhoop, A. E. Reed,
          J. E. Carpenter, J. A. Bohmann, C. M. Morales, C. R. Landis,
          and F. Weinhold (Theoretical Chemistry Institute, University
          of Wisconsin, Madison, WI, 2013); http://nbo6.chem.wisc.edu/

       /NPA    / : Natural Population Analysis
       /NBO    / : Natural Bond Orbital Analysis
       /AONBO  / : Write the AO to NBO transformation to lfn77
       /FILE   / : Set to 2009

 Filename set to 2009

 Job title:  *** NBO job generated by orca_scf

 Warning: MOs are non-orthogonal; program will continue

 Warning: -3746.84896 electrons reside outside the linearly independent MO space


 NATURAL POPULATIONS:  Natural atomic orbital occupancies

  NAO Atom No lang   Type(AO)    Occupancy      Energy
 -------------------------------------------------------
   1    C  1  s      Cor( 1s)     1.99922      -9.76818
   2    C  1  s      Val( 2s)     1.08203      -0.20718
   3    C  1  s      Ryd( 3s)     0.00039       0.84341
   4    C  1  px     Val( 2p)     1.10857      -0.05848
   5    C  1  px     Ryd( 3p)     0.00119       0.48961
   6    C  1  py     Val( 2p)     1.22607      -0.06210
   7    C  1  py     Ryd( 3p)     0.00145       0.59605
   8    C  1  pz     Val( 2p)     1.22805      -0.06419
   9    C  1  pz     Ryd( 3p)     0.00241       0.63127
  10    C  1  dxy    Ryd( 3d)     0.00035       2.09339
  11    C  1  dxz    Ryd( 3d)     0.00061       2.23536
  12    C  1  dyz    Ryd( 3d)     0.00035       2.21852
  13    C  1  dx2y2  Ryd( 3d)     0.00064       2.33195
  14    C  1  dz2    Ryd( 3d)     0.00040       2.22319

  15    C  2  s      Cor( 1s)     1.99898      -9.75986
  16    C  2  s      Val( 2s)     1.00613      -0.18285
  17    C  2  s      Ryd( 3s)     0.00124       0.87553
  18    C  2  px     Val( 2p)     1.10222      -0.06524
  19    C  2  px     Ryd( 3p)     0.00473       0.62286
  20    C  2  py     Val( 2p)     1.20156      -0.06095
  21    C  2  py     Ryd( 3p)     0.00387       0.67147
  22    C  2  pz     Val( 2p)     1.14366      -0.06092
  23    C  2  pz     Ryd( 3p)     0.00239       0.57823
  24    C  2  dxy    Ryd( 3d)     0.00037       2.06849
  25    C  2  dxz    Ryd( 3d)     0.00077       2.28082
  26    C  2  dyz    Ryd( 3d)     0.00032       2.11263
  27    C  2  dx2y2  Ryd( 3d)     0.00075       2.36133
  28    C  2  dz2    Ryd( 3d)     0.00056       2.19027

  29    C  3  s      Cor( 1s)     1.99887      -9.79510
  30    C  3  s      Val( 2s)     0.84936      -0.14164
  31    C  3  s      Ryd( 3s)     0.00255       0.92276
  32    C  3  px     Val( 2p)     0.89017      -0.06029
  33    C  3  px     Ryd( 3p)     0.00490       0.81596
  34    C  3  py     Val( 2p)     1.03903      -0.07691
  35    C  3  py     Ryd( 3p)     0.00336       0.73673
  36    C  3  pz     Val( 2p)     1.05169      -0.07403
  37    C  3  pz     Ryd( 3p)     0.00465       0.82504
  38    C  3  dxy    Ryd( 3d)     0.00101       2.01026
  39    C  3  dxz    Ryd( 3d)     0.00160       2.17040
  40    C  3  dyz    Ryd( 3d)     0.00112       2.03157
  41    C  3  dx2y2  Ryd( 3d)     0.00135       2.25831
  42    C  3  dz2    Ryd( 3d)     0.00115       2.19123

  43    N  4  s      Cor( 1s)     1.99939     -13.80931
  44    N  4  s      Val( 2s)     1.39880      -0.47715
  45    N  4  s      Ryd( 3s)     0.00130       1.11496
  46    N  4  px     Val( 2p)     1.34370      -0.16557
  47    N  4  px     Ryd( 3p)     0.00277       0.88107
  48    N  4  py     Val( 2p)     1.43221      -0.15316
  49    N  4  py     Ryd( 3p)     0.00416       0.96691
  50    N  4  pz     Val( 2p)     1.68360      -0.16437
  51    N  4  pz     Ryd( 3p)     0.00566       0.91958
  52    N  4  dxy    Ryd( 3d)     0.00024       2.45162
  53    N  4  dxz    Ryd( 3d)     0.00116       2.59798
  54    N  4  dyz    Ryd( 3d)     0.00075       2.40911
  55    N  4  dx2y2  Ryd( 3d)     0.00109       2.78869
  56    N  4  dz2    Ryd( 3d)     0.00137       2.57856

  57    C  5  s      Cor( 1s)     1.99903      -9.75707
  58    C  5  s      Val( 2s)     1.01817      -0.18083
  59    C  5  s      Ryd( 3s)     0.00156       0.88384
  60    C  5  px     Val( 2p)     1.19269      -0.05138
  61    C  5  px     Ryd( 3p)     0.00364       0.71691
  62    C  5  py     Val( 2p)     1.11367      -0.05700
  63    C  5  py     Ryd( 3p)     0.00387       0.57628
  64    C  5  pz     Val( 2p)     1.10371      -0.06213
  65    C  5  pz     Ryd( 3p)     0.00338       0.58898
  66    C  5  dxy    Ryd( 3d)     0.00048       2.09650
  67    C  5  dxz    Ryd( 3d)     0.00050       2.16135
  68    C  5  dyz    Ryd( 3d)     0.00097       2.17734
  69    C  5  dx2y2  Ryd( 3d)     0.00083       2.36594
  70    C  5  dz2    Ryd( 3d)     0.00054       2.12782

  71    C  6  s      Cor( 1s)     1.99913      -9.76186
  72    C  6  s      Val( 2s)     1.02665      -0.18401
  73    C  6  s      Ryd( 3s)     0.00060       0.89970
  74    C  6  px     Val( 2p)     1.22151      -0.04709
  75    C  6  px     Ryd( 3p)     0.00332       0.78113
  76    C  6  py     Val( 2p)     1.07437      -0.05583
  77    C  6  py     Ryd( 3p)     0.00276       0.54505
  78    C  6  pz     Val( 2p)     1.09651      -0.04928
  79    C  6  pz     Ryd( 3p)     0.00311       0.51682
  80    C  6  dxy    Ryd( 3d)     0.00053       2.18619
  81    C  6  dxz    Ryd( 3d)     0.00065       2.32972
  82    C  6  dyz    Ryd( 3d)     0.00085       2.09082
  83    C  6  dx2y2  Ryd( 3d)     0.00058       2.21013
  84    C  6  dz2    Ryd( 3d)     0.00069       2.18578

  85    C  7  s      Cor( 1s)     1.99903      -9.75677
  86    C  7  s      Val( 2s)     1.01833      -0.18078
  87    C  7  s      Ryd( 3s)     0.00152       0.88513
  88    C  7  px     Val( 2p)     1.23052      -0.05162
  89    C  7  px     Ryd( 3p)     0.00447       0.81845
  90    C  7  py     Val( 2p)     1.09418      -0.05571
  91    C  7  py     Ryd( 3p)     0.00351       0.52141
  92    C  7  pz     Val( 2p)     1.08419      -0.06240
  93    C  7  pz     Ryd( 3p)     0.00293       0.54594
  94    C  7  dxy    Ryd( 3d)     0.00056       2.27960
  95    C  7  dxz    Ryd( 3d)     0.00060       2.18540
  96    C  7  dyz    Ryd( 3d)     0.00081       2.03915
  97    C  7  dx2y2  Ryd( 3d)     0.00071       2.19359
  98    C  7  dz2    Ryd( 3d)     0.00065       2.21160

  99    H  8  s      Val( 1s)     0.76808       0.07411
 100    H  8  s      Ryd( 2s)     0.00168       0.33173
 101    H  8  px     Ryd( 2p)     0.00017       1.74539
 102    H  8  py     Ryd( 2p)     0.00030       1.86619
 103    H  8  pz     Ryd( 2p)     0.00061       2.15825

 104    H  9  s      Val( 1s)     0.77976       0.07115
 105    H  9  s      Ryd( 2s)     0.00160       0.38337
 106    H  9  px     Ryd( 2p)     0.00038       1.96532
 107    H  9  py     Ryd( 2p)     0.00022       1.78375
 108    H  9  pz     Ryd( 2p)     0.00048       2.02313

 109    H 10  s      Val( 1s)     0.77994       0.07134
 110    H 10  s      Ryd( 2s)     0.00160       0.38240
 111    H 10  px     Ryd( 2p)     0.00013       1.69638
 112    H 10  py     Ryd( 2p)     0.00082       2.27518
 113    H 10  pz     Ryd( 2p)     0.00018       1.75207

 114    H 11  s      Val( 1s)     0.77274       0.07149
 115    H 11  s      Ryd( 2s)     0.00398       0.35415
 116    H 11  px     Ryd( 2p)     0.00011       1.78183
 117    H 11  py     Ryd( 2p)     0.00089       2.26649
 118    H 11  pz     Ryd( 2p)     0.00012       1.74901

 119    H 12  s      Val( 1s)     0.77291       0.07042
 120    H 12  s      Ryd( 2s)     0.00397       0.35453
 121    H 12  px     Ryd( 2p)     0.00034       1.94860
 122    H 12  py     Ryd( 2p)     0.00019       1.81099
 123    H 12  pz     Ryd( 2p)     0.00053       2.07185

 124    H 13  s      Val( 1s)     0.63914       0.08466
 125    H 13  s      Ryd( 2s)     0.00278       0.40366
 126    H 13  px     Ryd( 2p)     0.00036       1.79141
 127    H 13  py     Ryd( 2p)     0.00132       2.37244
 128    H 13  pz     Ryd( 2p)     0.00082       1.71563

 129    H 14  s      Val( 1s)     0.63905       0.08511
 130    H 14  s      Ryd( 2s)     0.00282       0.40356
 131    H 14  px     Ryd( 2p)     0.00071       1.99012
 132    H 14  py     Ryd( 2p)     0.00063       1.82755
 133    H 14  pz     Ryd( 2p)     0.00110       2.09947

 134    H 15  s      Val( 1s)     0.77498       0.08095
 135    H 15  s      Ryd( 2s)     0.00222       0.40015
 136    H 15  px     Ryd( 2p)     0.00088       2.29185
 137    H 15  py     Ryd( 2p)     0.00012       1.78616
 138    H 15  pz     Ryd( 2p)     0.00015       1.73660

 139    H 16  s      Val( 1s)     0.77151       0.08957
 140    H 16  s      Ryd( 2s)     0.00242       0.33534
 141    H 16  px     Ryd( 2p)     0.00022       1.89009
 142    H 16  py     Ryd( 2p)     0.00043       2.05059
 143    H 16  pz     Ryd( 2p)     0.00038       1.94390

 144    H 17  s      Val( 1s)     0.77893       0.09267
 145    H 17  s      Ryd( 2s)     0.00192       0.32620
 146    H 17  px     Ryd( 2p)     0.00052       2.08821
 147    H 17  py     Ryd( 2p)     0.00031       1.89872
 148    H 17  pz     Ryd( 2p)     0.00021       1.89367

 149    H 18  s      Val( 1s)     0.76349       0.09870
 150    H 18  s      Ryd( 2s)     0.00333       0.34531
 151    H 18  px     Ryd( 2p)     0.00069       2.13964
 152    H 18  py     Ryd( 2p)     0.00012       1.73571
 153    H 18  pz     Ryd( 2p)     0.00033       1.95685

 154    H 19  s      Val( 1s)     0.77500       0.08111
 155    H 19  s      Ryd( 2s)     0.00223       0.39867
 156    H 19  px     Ryd( 2p)     0.00058       2.13209
 157    H 19  py     Ryd( 2p)     0.00022       1.84623
 158    H 19  pz     Ryd( 2p)     0.00029       1.87220

 159    H 20  s      Val( 1s)     0.77208       0.08909
 160    H 20  s      Ryd( 2s)     0.00238       0.33568
 161    H 20  px     Ryd( 2p)     0.00065       2.14386
 162    H 20  py     Ryd( 2p)     0.00029       1.93451
 163    H 20  pz     Ryd( 2p)     0.00011       1.79586

   1 low occupancy (<1.9990e) core orbital  found on  C  2
   1 low occupancy (<1.9990e) core orbital  found on  C  3


 Summary of Natural Population Analysis:

                                     Natural Population
             Natural    ---------------------------------------------
  Atom No    Charge        Core      Valence    Rydberg      Total
 --------------------------------------------------------------------
    C  1   -0.65173      1.99922     4.64472    0.00779     6.65173
    C  2   -0.46755      1.99898     4.45358    0.01499     6.46755
    C  3    0.14917      1.99887     3.83026    0.02170     5.85083
    N  4   -0.87618      1.99939     5.85830    0.01849     7.87618
    C  5   -0.44303      1.99903     4.42824    0.01576     6.44303
    C  6   -0.43124      1.99913     4.41904    0.01308     6.43124
    C  7   -0.44199      1.99903     4.42721    0.01575     6.44199
    H  8    0.22916      0.00000     0.76808    0.00276     0.77084
    H  9    0.21756      0.00000     0.77976    0.00267     0.78244
    H 10    0.21733      0.00000     0.77994    0.00273     0.78267
    H 11    0.22216      0.00000     0.77274    0.00510     0.77784
    H 12    0.22205      0.00000     0.77291    0.00504     0.77795
    H 13    0.35558      0.00000     0.63914    0.00528     0.64442
    H 14    0.35569      0.00000     0.63905    0.00526     0.64431
    H 15    0.22166      0.00000     0.77498    0.00336     0.77834
    H 16    0.22503      0.00000     0.77151    0.00345     0.77497
    H 17    0.21811      0.00000     0.77893    0.00297     0.78189
    H 18    0.23203      0.00000     0.76349    0.00448     0.76797
    H 19    0.22169      0.00000     0.77500    0.00332     0.77831
    H 20    0.22449      0.00000     0.77208    0.00343     0.77551
 ====================================================================
 * Total *  0.00000     13.99364    41.84896    0.15740    56.00000

                                 Natural Population
 ---------------------------------------------------------
   Core                      13.99364 ( 99.9546% of   14)
   Valence                   41.84896 ( 99.6404% of   42)
   Natural Minimal Basis     55.84260 ( 99.7189% of   56)
   Natural Rydberg Basis      0.15740 (  0.2811% of   56)
 ---------------------------------------------------------

    Atom No         Natural Electron Configuration
 ----------------------------------------------------------------------------
      C  1      [core]2s( 1.08)2p( 3.56)3p( 0.01)
      C  2      [core]2s( 1.01)2p( 3.45)3p( 0.01)
      C  3      [core]2s( 0.85)2p( 2.98)3p( 0.01)3d( 0.01)
      N  4      [core]2s( 1.40)2p( 4.46)3p( 0.01)
      C  5      [core]2s( 1.02)2p( 3.41)3p( 0.01)
      C  6      [core]2s( 1.03)2p( 3.39)3p( 0.01)
      C  7      [core]2s( 1.02)2p( 3.41)3p( 0.01)
      H  8            1s( 0.77)
      H  9            1s( 0.78)
      H 10            1s( 0.78)
      H 11            1s( 0.77)
      H 12            1s( 0.77)
      H 13            1s( 0.64)
      H 14            1s( 0.64)
      H 15            1s( 0.77)
      H 16            1s( 0.77)
      H 17            1s( 0.78)
      H 18            1s( 0.76)
      H 19            1s( 0.77)
      H 20            1s( 0.77)


 NATURAL BOND ORBITAL ANALYSIS:

                            Occupancies       Lewis Structure    Low   High
         Max    Occ     -------------------  -----------------   occ   occ
  Cycle  Ctr   Thresh    Lewis   non-Lewis     CR  BD  nC  LP    (L)   (NL)
 ============================================================================
    1     2     1.90    55.54435   0.45565      7  20   0   1     0      0
 ----------------------------------------------------------------------------

 Structure accepted: No low occupancy Lewis orbitals

 -------------------------------------------------------
   Core                     13.99364 ( 99.955% of  14)
   Valence Lewis            41.55071 ( 98.930% of  42)
  ==================      =============================
   Total Lewis              55.54435 ( 99.186% of  56)
  -----------------------------------------------------
   Valence non-Lewis         0.34640 (  0.619% of  56)
   Rydberg non-Lewis         0.10925 (  0.195% of  56)
  ==================      =============================
   Total non-Lewis           0.45565 (  0.814% of  56)
 -------------------------------------------------------


     (Occupancy)   Bond orbital / Coefficients / Hybrids
 ------------------ Lewis ------------------------------------------------------
   1. (1.99922) CR ( 1) C  1            s(100.00%)
                                         1.0000  0.0000  0.0000  0.0000  0.0000
                                         0.0000  0.0000  0.0000  0.0000  0.0000
                                         0.0000  0.0000  0.0000  0.0000
   2. (1.99898) CR ( 1) C  2            s(100.00%)
                                         1.0000  0.0000  0.0000  0.0000  0.0000
                                         0.0000  0.0000  0.0000  0.0000  0.0000
                                         0.0000  0.0000  0.0000  0.0000
   3. (1.99887) CR ( 1) C  3            s(100.00%)
                                         1.0000  0.0000  0.0000  0.0000  0.0000
                                         0.0000  0.0000  0.0000  0.0000  0.0000
                                         0.0000  0.0000  0.0000  0.0000
   4. (1.99939) CR ( 1) N  4            s(100.00%)
                                         1.0000  0.0000  0.0000  0.0000  0.0000
                                         0.0000  0.0000  0.0000  0.0000  0.0000
                                         0.0000  0.0000  0.0000  0.0000
   5. (1.99903) CR ( 1) C  5            s(100.00%)
                                         1.0000  0.0000  0.0000  0.0000  0.0000
                                         0.0000  0.0000  0.0000  0.0000  0.0000
                                         0.0000  0.0000  0.0000  0.0000
   6. (1.99913) CR ( 1) C  6            s(100.00%)
                                         1.0000  0.0000  0.0000  0.0000  0.0000
                                         0.0000  0.0000  0.0000  0.0000  0.0000
                                         0.0000  0.0000  0.0000  0.0000
   7. (1.99903) CR ( 1) C  7            s(100.00%)
                                         1.0000  0.0000  0.0000  0.0000  0.0000
                                         0.0000  0.0000  0.0000  0.0000  0.0000
                                         0.0000  0.0000  0.0000  0.0000
   8. (1.94885) LP ( 1) N  4            s( 18.73%)p 4.34( 81.21%)d 0.00(  0.06%)
                                         0.0000  0.4327 -0.0064  0.3256  0.0048
                                        -0.3748 -0.0209  0.7510  0.0345  0.0061
                                        -0.0122  0.0155  0.0015 -0.0136
   9. (1.98618) BD ( 1) C  1- C  2
               ( 49.48%)   0.7034* C  1 s( 30.28%)p 2.30( 69.69%)d 0.00(  0.03%)
                                         0.0000  0.5503 -0.0007  0.7922  0.0004
                                         0.1621  0.0093  0.2065 -0.0147  0.0059
                                         0.0072  0.0013  0.0137 -0.0073
               ( 50.52%)   0.7108* C  2 s( 28.24%)p 2.54( 71.72%)d 0.00(  0.03%)
                                         0.0000  0.5313  0.0144 -0.8050 -0.0067
                                        -0.1743  0.0103 -0.1955 -0.0194  0.0065
                                         0.0070  0.0012  0.0141 -0.0077
  10. (1.98613) BD ( 1) C  1- H  8
               ( 61.51%)   0.7843* C  1 s( 23.06%)p 3.33( 76.90%)d 0.00(  0.04%)
                                         0.0000  0.4802  0.0060 -0.2228 -0.0079
                                         0.4079 -0.0064 -0.7435  0.0057 -0.0037
                                         0.0065 -0.0137 -0.0030  0.0115
               ( 38.49%)   0.6204* H  8 s( 99.91%)p 0.00(  0.09%)
                                         0.9995 -0.0010  0.0084 -0.0137  0.0257
  11. (1.98710) BD ( 1) C  1- H  9
               ( 61.04%)   0.7813* C  1 s( 23.30%)p 3.29( 76.66%)d 0.00(  0.04%)
                                         0.0000  0.4827 -0.0024 -0.5527 -0.0153
                                         0.2674 -0.0004  0.6239 -0.0105 -0.0066
                                        -0.0151  0.0077  0.0051  0.0054
               ( 38.96%)   0.6242* H  9 s( 99.91%)p 0.00(  0.09%)
                                         0.9996 -0.0019  0.0198 -0.0090 -0.0206
  12. (1.98712) BD ( 1) C  1- H 10
               ( 61.03%)   0.7812* C  1 s( 23.31%)p 3.29( 76.66%)d 0.00(  0.04%)
                                         0.0000  0.4828 -0.0023 -0.1285 -0.0154
                                        -0.8575  0.0016 -0.1202 -0.0091  0.0041
                                         0.0007  0.0044 -0.0154 -0.0089
               ( 38.97%)   0.6243* H 10 s( 99.90%)p 0.00(  0.10%)
                                         0.9995 -0.0019  0.0059  0.0308  0.0050
  13. (1.97971) BD ( 1) C  2- C  3
               ( 50.03%)   0.7073* C  2 s( 30.24%)p 2.31( 69.72%)d 0.00(  0.03%)
                                         0.0000  0.5500  0.0005  0.2710  0.0119
                                        -0.3623  0.0091  0.7016 -0.0056 -0.0044
                                         0.0092 -0.0111 -0.0006  0.0098
               ( 49.97%)   0.7069* C  3 s( 29.89%)p 2.34( 70.08%)d 0.00(  0.03%)
                                         0.0000  0.5467  0.0090 -0.2994  0.0174
                                         0.3498  0.0037 -0.6989  0.0027 -0.0039
                                         0.0088 -0.0110 -0.0004  0.0094
  14. (1.97100) BD ( 1) C  2- H 11
               ( 61.29%)   0.7829* C  2 s( 20.74%)p 3.82( 79.22%)d 0.00(  0.04%)
                                         0.0000  0.4554 -0.0052  0.0943  0.0016
                                         0.8827 -0.0042  0.0625 -0.0154  0.0035
                                         0.0005  0.0031 -0.0159 -0.0094
               ( 38.71%)   0.6221* H 11 s( 99.89%)p 0.00(  0.11%)
                                         0.9994 -0.0042 -0.0038 -0.0327 -0.0022
  15. (1.97115) BD ( 1) C  2- H 12
               ( 61.30%)   0.7829* C  2 s( 20.72%)p 3.82( 79.24%)d 0.00(  0.04%)
                                         0.0000  0.4552 -0.0049  0.5184 -0.0047
                                        -0.2418  0.0143 -0.6819 -0.0029 -0.0057
                                        -0.0151  0.0075  0.0048  0.0069
               ( 38.70%)   0.6221* H 12 s( 99.90%)p 0.00(  0.10%)
                                         0.9995 -0.0041 -0.0185  0.0081  0.0243
  16. (1.98223) BD ( 1) C  3- N  4
               ( 39.81%)   0.6309* C  3 s( 22.36%)p 3.47( 77.53%)d 0.00(  0.10%)
                                         0.0000  0.4723  0.0226  0.8393  0.0249
                                         0.2325  0.0084  0.1271  0.0012  0.0123
                                         0.0110  0.0015  0.0241 -0.0137
               ( 60.19%)   0.7758* N  4 s( 36.39%)p 1.75( 63.54%)d 0.00(  0.06%)
                                         0.0000  0.6033 -0.0034 -0.7603 -0.0031
                                        -0.2066 -0.0007 -0.1212 -0.0008  0.0027
                                         0.0122  0.0082  0.0168 -0.0101
  17. (1.95940) BD ( 1) C  3- C  5
               ( 50.57%)   0.7111* C  3 s( 23.82%)p 3.20( 76.14%)d 0.00(  0.04%)
                                         0.0000  0.4879 -0.0122 -0.4509  0.0045
                                         0.2538  0.0298  0.7018 -0.0146 -0.0005
                                        -0.0156  0.0047  0.0025  0.0127
               ( 49.43%)   0.7031* C  5 s( 26.37%)p 2.79( 73.58%)d 0.00(  0.05%)
                                         0.0000  0.5134 -0.0106  0.4115 -0.0008
                                         0.0511  0.0279 -0.7503  0.0100 -0.0043
                                        -0.0162  0.0048  0.0030  0.0125
  18. (1.95914) BD ( 1) C  3- C  7
               ( 50.56%)   0.7110* C  3 s( 23.82%)p 3.20( 76.14%)d 0.00(  0.04%)
                                         0.0000  0.4878 -0.0135 -0.0267  0.0126
                                        -0.8703  0.0088 -0.0427 -0.0341  0.0016
                                        -0.0026 -0.0045 -0.0172 -0.0105
               ( 49.44%)   0.7032* C  7 s( 26.39%)p 2.79( 73.56%)d 0.00(  0.05%)
                                         0.0000  0.5136 -0.0095  0.1244  0.0164
                                         0.8111 -0.0148 -0.2477 -0.0189  0.0021
                                        -0.0003 -0.0027 -0.0192 -0.0091
  19. (1.98666) BD ( 1) N  4- H 13
               ( 68.15%)   0.8255* N  4 s( 22.39%)p 3.46( 77.53%)d 0.00(  0.08%)
                                         0.0000  0.4731  0.0081  0.1233 -0.0227
                                         0.8646 -0.0237  0.1056 -0.0162 -0.0017
                                        -0.0043 -0.0087 -0.0215 -0.0153
               ( 31.85%)   0.5644* H 13 s( 99.81%)p 0.00(  0.19%)
                                         0.9990 -0.0046 -0.0058 -0.0423 -0.0093
  20. (1.98653) BD ( 1) N  4- H 14
               ( 68.15%)   0.8256* N  4 s( 22.36%)p 3.47( 77.56%)d 0.00(  0.08%)
                                         0.0000  0.4728  0.0073  0.5470 -0.0349
                                        -0.2590  0.0090 -0.6387  0.0058  0.0021
                                        -0.0192  0.0078  0.0021  0.0200
               ( 31.85%)   0.5643* H 14 s( 99.82%)p 0.00(  0.18%)
                                         0.9991 -0.0046 -0.0271  0.0156  0.0286
  21. (1.97911) BD ( 1) C  5- C  6
               ( 50.43%)   0.7101* C  5 s( 25.36%)p 2.94( 74.60%)d 0.00(  0.05%)
                                         0.0000  0.5036  0.0020  0.1183 -0.0095
                                        -0.7768  0.0069  0.3570  0.0312 -0.0082
                                         0.0000 -0.0063 -0.0160 -0.0102
               ( 49.57%)   0.7041* C  6 s( 25.44%)p 2.93( 74.52%)d 0.00(  0.05%)
                                         0.0000  0.5043 -0.0038 -0.2379 -0.0181
                                         0.8278 -0.0029 -0.0442  0.0309 -0.0075
                                         0.0024 -0.0096 -0.0161 -0.0070
  22. (1.97866) BD ( 1) C  5- H 15
               ( 61.25%)   0.7826* C  5 s( 23.35%)p 3.28( 76.62%)d 0.00(  0.04%)
                                         0.0000  0.4832 -0.0012 -0.8563 -0.0023
                                         0.1240  0.0187 -0.1298  0.0206 -0.0014
                                         0.0076 -0.0001  0.0159 -0.0079
               ( 38.75%)   0.6225* H 15 s( 99.89%)p 0.00(  0.11%)
                                         0.9995 -0.0027  0.0323 -0.0051  0.0040
  23. (1.98678) BD ( 1) C  5- H 16
               ( 61.64%)   0.7851* C  5 s( 24.75%)p 3.04( 75.22%)d 0.00(  0.03%)
                                         0.0000  0.4974  0.0100  0.2878 -0.0169
                                         0.6145 -0.0004  0.5398  0.0011  0.0079
                                         0.0065  0.0133 -0.0054  0.0002
               ( 38.36%)   0.6194* H 16 s( 99.90%)p 0.00(  0.10%)
                                         0.9995 -0.0035 -0.0103 -0.0219 -0.0201
  24. (1.97913) BD ( 1) C  6- C  7
               ( 49.61%)   0.7044* C  6 s( 25.45%)p 2.93( 74.50%)d 0.00(  0.05%)
                                         0.0000  0.5045 -0.0028  0.1863 -0.0058
                                        -0.2963 -0.0340 -0.7882  0.0100 -0.0018
                                        -0.0067  0.0036 -0.0003  0.0201
               ( 50.39%)   0.7098* C  7 s( 25.35%)p 2.94( 74.61%)d 0.00(  0.05%)
                                         0.0000  0.5035  0.0014 -0.1609  0.0055
                                        -0.0358 -0.0330  0.8472  0.0044 -0.0005
                                        -0.0082  0.0080 -0.0008  0.0182
  25. (1.98965) BD ( 1) C  6- H 17
               ( 61.29%)   0.7829* C  6 s( 25.07%)p 2.99( 74.90%)d 0.00(  0.03%)
                                         0.0000  0.5006  0.0064 -0.6389  0.0154
                                        -0.4700  0.0000  0.3459  0.0085  0.0126
                                        -0.0083 -0.0062  0.0051 -0.0053
               ( 38.71%)   0.6222* H 17 s( 99.90%)p 0.00(  0.10%)
                                         0.9995 -0.0030  0.0224  0.0171 -0.0133
  26. (1.98059) BD ( 1) C  6- H 18
               ( 61.85%)   0.7864* C  6 s( 23.88%)p 3.19( 76.08%)d 0.00(  0.03%)
                                         0.0000  0.4887 -0.0019  0.7069 -0.0113
                                        -0.0681 -0.0123  0.5061  0.0124  0.0001
                                         0.0136  0.0000  0.0120 -0.0025
               ( 38.15%)   0.6177* H 18 s( 99.89%)p 0.00(  0.11%)
                                         0.9994 -0.0040 -0.0271  0.0020 -0.0186
  27. (1.97873) BD ( 1) C  7- H 19
               ( 61.25%)   0.7826* C  7 s( 23.35%)p 3.28( 76.61%)d 0.00(  0.04%)
                                         0.0000  0.4832 -0.0010 -0.6838  0.0137
                                        -0.3336 -0.0227 -0.4318 -0.0068  0.0081
                                         0.0132  0.0043  0.0110 -0.0041
               ( 38.75%)   0.6225* H 19 s( 99.90%)p 0.00(  0.10%)
                                         0.9995 -0.0026  0.0241  0.0130  0.0157
  28. (1.98687) BD ( 1) C  7- H 20
               ( 61.61%)   0.7849* C  7 s( 24.74%)p 3.04( 75.23%)d 0.00(  0.03%)
                                         0.0000  0.4973  0.0095  0.7001 -0.0134
                                        -0.4779 -0.0092 -0.1830 -0.0037 -0.0124
                                        -0.0052  0.0037  0.0065 -0.0078
               ( 38.39%)   0.6196* H 20 s( 99.90%)p 0.00(  0.10%)
                                         0.9995 -0.0034 -0.0257  0.0176  0.0062
 ---------------- non-Lewis ----------------------------------------------------
  29. (0.01346) BD*( 1) C  1- C  2
               ( 50.52%)   0.7108* C  1 s( 30.28%)p 2.30( 69.69%)d 0.00(  0.03%)
                                         0.0000  0.5503 -0.0007  0.7922  0.0004
                                         0.1621  0.0093  0.2065 -0.0147  0.0059
                                         0.0072  0.0013  0.0137 -0.0073
               ( 49.48%)  -0.7034* C  2 s( 28.24%)p 2.54( 71.72%)d 0.00(  0.03%)
                                         0.0000  0.5313  0.0144 -0.8050 -0.0067
                                        -0.1743  0.0103 -0.1955 -0.0194  0.0065
                                         0.0070  0.0012  0.0141 -0.0077
  30. (0.00690) BD*( 1) C  1- H  8
               ( 38.49%)   0.6204* C  1 s( 23.06%)p 3.33( 76.90%)d 0.00(  0.04%)
                                         0.0000 -0.4802 -0.0060  0.2228  0.0079
                                        -0.4079  0.0064  0.7435 -0.0057  0.0037
                                        -0.0065  0.0137  0.0030 -0.0115
               ( 61.51%)  -0.7843* H  8 s( 99.91%)p 0.00(  0.09%)
                                        -0.9995  0.0010 -0.0084  0.0137 -0.0257
  31. (0.01038) BD*( 1) C  1- H  9
               ( 38.96%)   0.6242* C  1 s( 23.30%)p 3.29( 76.66%)d 0.00(  0.04%)
                                         0.0000 -0.4827  0.0024  0.5527  0.0153
                                        -0.2674  0.0004 -0.6239  0.0105  0.0066
                                         0.0151 -0.0077 -0.0051 -0.0054
               ( 61.04%)  -0.7813* H  9 s( 99.91%)p 0.00(  0.09%)
                                        -0.9996  0.0019 -0.0198  0.0090  0.0206
  32. (0.01031) BD*( 1) C  1- H 10
               ( 38.97%)   0.6243* C  1 s( 23.31%)p 3.29( 76.66%)d 0.00(  0.04%)
                                         0.0000 -0.4828  0.0023  0.1285  0.0154
                                         0.8575 -0.0016  0.1202  0.0091 -0.0041
                                        -0.0007 -0.0044  0.0154  0.0089
               ( 61.03%)  -0.7812* H 10 s( 99.90%)p 0.00(  0.10%)
                                        -0.9995  0.0019 -0.0059 -0.0308 -0.0050
  33. (0.05231) BD*( 1) C  2- C  3
               ( 49.97%)   0.7069* C  2 s( 30.24%)p 2.31( 69.72%)d 0.00(  0.03%)
                                         0.0000  0.5500  0.0005  0.2710  0.0119
                                        -0.3623  0.0091  0.7016 -0.0056 -0.0044
                                         0.0092 -0.0111 -0.0006  0.0098
               ( 50.03%)  -0.7073* C  3 s( 29.89%)p 2.34( 70.08%)d 0.00(  0.03%)
                                         0.0000  0.5467  0.0090 -0.2994  0.0174
                                         0.3498  0.0037 -0.6989  0.0027 -0.0039
                                         0.0088 -0.0110 -0.0004  0.0094
  34. (0.01742) BD*( 1) C  2- H 11
               ( 38.71%)   0.6221* C  2 s( 20.74%)p 3.82( 79.22%)d 0.00(  0.04%)
                                         0.0000 -0.4554  0.0052 -0.0943 -0.0016
                                        -0.8827  0.0042 -0.0625  0.0154 -0.0035
                                        -0.0005 -0.0031  0.0159  0.0094
               ( 61.29%)  -0.7829* H 11 s( 99.89%)p 0.00(  0.11%)
                                        -0.9994  0.0042  0.0038  0.0327  0.0022
  35. (0.01760) BD*( 1) C  2- H 12
               ( 38.70%)   0.6221* C  2 s( 20.72%)p 3.82( 79.24%)d 0.00(  0.04%)
                                         0.0000 -0.4552  0.0049 -0.5184  0.0047
                                         0.2418 -0.0143  0.6819  0.0029  0.0057
                                         0.0151 -0.0075 -0.0048 -0.0069
               ( 61.30%)  -0.7829* H 12 s( 99.90%)p 0.00(  0.10%)
                                        -0.9995  0.0041  0.0185 -0.0081 -0.0243
  36. (0.03227) BD*( 1) C  3- N  4
               ( 60.19%)   0.7758* C  3 s( 22.36%)p 3.47( 77.53%)d 0.00(  0.10%)
                                         0.0000 -0.4723 -0.0226 -0.8393 -0.0249
                                        -0.2325 -0.0084 -0.1271 -0.0012 -0.0123
                                        -0.0110 -0.0015 -0.0241  0.0137
               ( 39.81%)  -0.6309* N  4 s( 36.39%)p 1.75( 63.54%)d 0.00(  0.06%)
                                         0.0000 -0.6033  0.0034  0.7603  0.0031
                                         0.2066  0.0007  0.1212  0.0008 -0.0027
                                        -0.0122 -0.0082 -0.0168  0.0101
  37. (0.03102) BD*( 1) C  3- C  5
               ( 49.43%)   0.7031* C  3 s( 23.82%)p 3.20( 76.14%)d 0.00(  0.04%)
                                         0.0000 -0.4879  0.0122  0.4509 -0.0045
                                        -0.2538 -0.0298 -0.7018  0.0146  0.0005
                                         0.0156 -0.0047 -0.0025 -0.0127
               ( 50.57%)  -0.7111* C  5 s( 26.37%)p 2.79( 73.58%)d 0.00(  0.05%)
                                         0.0000 -0.5134  0.0106 -0.4115  0.0008
                                        -0.0511 -0.0279  0.7503 -0.0100  0.0043
                                         0.0162 -0.0048 -0.0030 -0.0125
  38. (0.03087) BD*( 1) C  3- C  7
               ( 49.44%)   0.7032* C  3 s( 23.82%)p 3.20( 76.14%)d 0.00(  0.04%)
                                         0.0000 -0.4878  0.0135  0.0267 -0.0126
                                         0.8703 -0.0088  0.0427  0.0341 -0.0016
                                         0.0026  0.0045  0.0172  0.0105
               ( 50.56%)  -0.7110* C  7 s( 26.39%)p 2.79( 73.56%)d 0.00(  0.05%)
                                         0.0000 -0.5136  0.0095 -0.1244 -0.0164
                                        -0.8111  0.0148  0.2477  0.0189 -0.0021
                                         0.0003  0.0027  0.0192  0.0091
  39. (0.01109) BD*( 1) N  4- H 13
               ( 31.85%)   0.5644* N  4 s( 22.39%)p 3.46( 77.53%)d 0.00(  0.08%)
                                         0.0000 -0.4731 -0.0081 -0.1233  0.0227
                                        -0.8646  0.0237 -0.1056  0.0162  0.0017
                                         0.0043  0.0087  0.0215  0.0153
               ( 68.15%)  -0.8255* H 13 s( 99.81%)p 0.00(  0.19%)
                                        -0.9990  0.0046  0.0058  0.0423  0.0093
  40. (0.01106) BD*( 1) N  4- H 14
               ( 31.85%)   0.5643* N  4 s( 22.36%)p 3.47( 77.56%)d 0.00(  0.08%)
                                         0.0000 -0.4728 -0.0073 -0.5470  0.0349
                                         0.2590 -0.0090  0.6387 -0.0058 -0.0021
                                         0.0192 -0.0078 -0.0021 -0.0200
               ( 68.15%)  -0.8256* H 14 s( 99.82%)p 0.00(  0.18%)
                                        -0.9991  0.0046  0.0271 -0.0156 -0.0286
  41. (0.00500) BD*( 1) C  5- C  6
               ( 49.57%)   0.7041* C  5 s( 25.36%)p 2.94( 74.60%)d 0.00(  0.05%)
                                         0.0000 -0.5036 -0.0020 -0.1183  0.0095
                                         0.7768 -0.0069 -0.3570 -0.0312  0.0082
                                         0.0000  0.0063  0.0160  0.0102
               ( 50.43%)  -0.7101* C  6 s( 25.44%)p 2.93( 74.52%)d 0.00(  0.05%)
                                         0.0000 -0.5043  0.0038  0.2379  0.0181
                                        -0.8278  0.0029  0.0442 -0.0309  0.0075
                                        -0.0024  0.0096  0.0161  0.0070
  42. (0.01476) BD*( 1) C  5- H 15
               ( 38.75%)   0.6225* C  5 s( 23.35%)p 3.28( 76.62%)d 0.00(  0.04%)
                                         0.0000 -0.4832  0.0012  0.8563  0.0023
                                        -0.1240 -0.0187  0.1298 -0.0206  0.0014
                                        -0.0076  0.0001 -0.0159  0.0079
               ( 61.25%)  -0.7826* H 15 s( 99.89%)p 0.00(  0.11%)
                                        -0.9995  0.0027 -0.0323  0.0051 -0.0040
  43. (0.01636) BD*( 1) C  5- H 16
               ( 38.36%)   0.6194* C  5 s( 24.75%)p 3.04( 75.22%)d 0.00(  0.03%)
                                         0.0000 -0.4974 -0.0100 -0.2878  0.0169
                                        -0.6145  0.0004 -0.5398 -0.0011 -0.0079
                                        -0.0065 -0.0133  0.0054 -0.0002
               ( 61.64%)  -0.7851* H 16 s( 99.90%)p 0.00(  0.10%)
                                        -0.9995  0.0035  0.0103  0.0219  0.0201
  44. (0.00498) BD*( 1) C  6- C  7
               ( 50.39%)   0.7098* C  6 s( 25.45%)p 2.93( 74.50%)d 0.00(  0.05%)
                                         0.0000  0.5045 -0.0028  0.1863 -0.0058
                                        -0.2963 -0.0340 -0.7882  0.0100 -0.0018
                                        -0.0067  0.0036 -0.0003  0.0201
               ( 49.61%)  -0.7044* C  7 s( 25.35%)p 2.94( 74.61%)d 0.00(  0.05%)
                                         0.0000  0.5035  0.0014 -0.1609  0.0055
                                        -0.0358 -0.0330  0.8472  0.0044 -0.0005
                                        -0.0082  0.0080 -0.0008  0.0182
  45. (0.01540) BD*( 1) C  6- H 17
               ( 38.71%)   0.6222* C  6 s( 25.07%)p 2.99( 74.90%)d 0.00(  0.03%)
                                         0.0000 -0.5006 -0.0064  0.6389 -0.0154
                                         0.4700  0.0000 -0.3459 -0.0085 -0.0126
                                         0.0083  0.0062 -0.0051  0.0053
               ( 61.29%)  -0.7829* H 17 s( 99.90%)p 0.00(  0.10%)
                                        -0.9995  0.0030 -0.0224 -0.0171  0.0133
  46. (0.01406) BD*( 1) C  6- H 18
               ( 38.15%)   0.6177* C  6 s( 23.88%)p 3.19( 76.08%)d 0.00(  0.03%)
                                         0.0000 -0.4887  0.0019 -0.7069  0.0113
                                         0.0681  0.0123 -0.5061 -0.0124 -0.0001
                                        -0.0136  0.0000 -0.0120  0.0025
               ( 61.85%)  -0.7864* H 18 s( 99.89%)p 0.00(  0.11%)
                                        -0.9994  0.0040  0.0271 -0.0020  0.0186
  47. (0.01475) BD*( 1) C  7- H 19
               ( 38.75%)   0.6225* C  7 s( 23.35%)p 3.28( 76.61%)d 0.00(  0.04%)
                                         0.0000 -0.4832  0.0010  0.6838 -0.0137
                                         0.3336  0.0227  0.4318  0.0068 -0.0081
                                        -0.0132 -0.0043 -0.0110  0.0041
               ( 61.25%)  -0.7826* H 19 s( 99.90%)p 0.00(  0.10%)
                                        -0.9995  0.0026 -0.0241 -0.0130 -0.0157
  48. (0.01640) BD*( 1) C  7- H 20
               ( 38.39%)   0.6196* C  7 s( 24.74%)p 3.04( 75.23%)d 0.00(  0.03%)
                                         0.0000 -0.4973 -0.0095 -0.7001  0.0134
                                         0.4779  0.0092  0.1830  0.0037  0.0124
                                         0.0052 -0.0037 -0.0065  0.0078
               ( 61.61%)  -0.7849* H 20 s( 99.90%)p 0.00(  0.10%)
                                        -0.9995  0.0034  0.0257 -0.0176 -0.0062
  49. (0.00277) RY ( 1) C  1            s(  5.54%)p15.78( 87.41%)d 1.27(  7.05%)
                                         0.0000  0.0157  0.2348  0.0065  0.1619
                                        -0.0095 -0.4874  0.0181  0.7809 -0.1338
                                         0.1986 -0.0429  0.0235  0.1037
  50. (0.00136) RY ( 2) C  1            s(  0.02%)p99.99( 72.91%)d99.99( 27.07%)
                                         0.0000  0.0007  0.0126 -0.0027 -0.2538
                                         0.0079  0.6669  0.0064  0.4688  0.3379
                                         0.2568  0.1056 -0.2810  0.0232
  51. (0.00056) RY ( 3) C  1            s( 16.01%)p 5.24( 83.88%)d 0.01(  0.11%)
                                         0.0000  0.0135  0.3999 -0.0144  0.8403
                                        -0.0051  0.3583  0.0003 -0.0632  0.0160
                                        -0.0091  0.0078  0.0164 -0.0209
  52. (0.00017) RY ( 4) C  1            s( 46.76%)p 0.21( 10.05%)d 0.92( 43.19%)
                                         0.0000 -0.0053  0.6838  0.0049 -0.2979
                                         0.0037 -0.1079 -0.0040  0.0085  0.3549
                                        -0.4842  0.0245  0.0295 -0.2646
  53. (0.00004) RY ( 5) C  1            s( 24.38%)p 0.55( 13.29%)d 2.56( 62.33%)
  54. (0.00002) RY ( 6) C  1            s(  6.10%)p 0.84(  5.10%)d14.54( 88.79%)
  55. (0.00001) RY ( 7) C  1            s(  0.00%)p 1.00( 14.06%)d 6.11( 85.93%)
  56. (0.00000) RY ( 8) C  1            s(  0.01%)p 1.00( 12.87%)d 6.77( 87.13%)
  57. (0.00000) RY ( 9) C  1            s(  1.23%)p 0.41(  0.51%)d79.63( 98.25%)
  58. (0.00481) RY ( 1) C  2            s(  0.02%)p99.99( 94.13%)d99.99(  5.85%)
                                         0.0000  0.0002  0.0143 -0.0062 -0.3071
                                         0.0174  0.7597  0.0107  0.5190 -0.0483
                                        -0.1063  0.0456  0.1494  0.1430
  59. (0.00465) RY ( 2) C  2            s(  0.21%)p99.99( 99.24%)d 2.57(  0.55%)
                                         0.0000  0.0060  0.0458  0.0065 -0.9312
                                        -0.0055 -0.3520  0.0104 -0.0349  0.0193
                                        -0.0560 -0.0229 -0.0379  0.0040
  60. (0.00137) RY ( 3) C  2            s( 62.87%)p 0.19( 11.93%)d 0.40( 25.20%)
                                         0.0000 -0.0129  0.7928  0.0192 -0.0502
                                         0.0097  0.1688 -0.0042 -0.2963 -0.1651
                                         0.4328 -0.0021  0.1807  0.0693
  61. (0.00065) RY ( 4) C  2            s( 21.77%)p 3.27( 71.24%)d 0.32(  6.99%)
                                         0.0000  0.0204  0.4661  0.0003  0.1621
                                         0.0007 -0.4234 -0.0017  0.7119  0.1795
                                        -0.1049  0.1161  0.0241 -0.1124
  62. (0.00032) RY ( 5) C  2            s(  0.17%)p 2.61(  0.44%)d99.99( 99.39%)
                                         0.0000  0.0011  0.0410 -0.0010  0.0234
                                         0.0046 -0.0568  0.0039  0.0244 -0.6652
                                        -0.3509 -0.3473  0.3214 -0.4521
  63. (0.00021) RY ( 6) C  2            s(  0.01%)p99.99(  6.35%)d99.99( 93.64%)
                                         0.0000  0.0067  0.0092 -0.0165  0.0554
                                         0.0033 -0.1247 -0.0144  0.2107 -0.4322
                                         0.1169 -0.4321 -0.4633  0.5784
  64. (0.00007) RY ( 7) C  2            s( 14.66%)p 0.73( 10.72%)d 5.09( 74.62%)
  65. (0.00001) RY ( 8) C  2            s(  0.00%)p 1.00(  5.75%)d16.39( 94.25%)
  66. (0.00000) RY ( 9) C  2            s(  0.34%)p 0.88(  0.29%)d99.99( 99.37%)
  67. (0.00462) RY ( 1) C  3            s(  8.58%)p 9.21( 79.01%)d 1.44( 12.40%)
                                         0.0000  0.0010  0.2930 -0.0155  0.5498
                                        -0.0220 -0.2022  0.0186  0.6677  0.1164
                                        -0.1423 -0.2670 -0.0924  0.1019
  68. (0.00399) RY ( 2) C  3            s( 11.30%)p 7.39( 83.59%)d 0.45(  5.11%)
                                         0.0000  0.0364  0.3342 -0.0059 -0.7521
                                        -0.0123 -0.4433  0.0119  0.2709  0.1074
                                         0.0421 -0.1691  0.0945  0.0152
  69. (0.00192) RY ( 3) C  3            s(  0.01%)p 1.00( 91.78%)d 0.09(  8.22%)
                                         0.0000  0.0003  0.0078 -0.0040  0.2861
                                         0.0100 -0.7760  0.0076 -0.4832 -0.0404
                                        -0.1644  0.0451  0.1705  0.1496
  70. (0.00179) RY ( 4) C  3            s( 49.63%)p 0.49( 24.41%)d 0.52( 25.96%)
                                         0.0000 -0.0236  0.7041 -0.0143  0.1162
                                        -0.0089  0.2811  0.0067 -0.3890 -0.0243
                                         0.3044 -0.3246  0.1544  0.1928
  71. (0.00143) RY ( 5) C  3            s(  3.98%)p 2.46(  9.79%)d21.65( 86.23%)
                                         0.0000 -0.0085  0.1994  0.0058 -0.0866
                                         0.0126  0.1734 -0.0152 -0.2448  0.4473
                                        -0.7585 -0.1066 -0.2030 -0.1852
  72. (0.00081) RY ( 6) C  3            s(  0.02%)p82.77(  1.44%)d99.99( 98.54%)
[...]
  4 C               159.4     155.9     198.7     189.8     114.7     113.5
  5 C               -15.9     -37.3      -3.5     -55.7      -5.1      -0.2
  6 C                 2.3       6.1       4.8       2.5      -0.0       0.0
  8 H                 0.3       0.0      -0.1      -0.2      -0.0      -0.1
 10 H                -0.0      -0.1      -0.1      -0.0       0.0      -0.0
 11 H                -0.1      -0.0      -0.3      -0.0      -0.0      -0.0
 12 H                 0.1      -0.0       0.1      -0.0      -0.1       0.0
 13 H                -0.0      -0.0      -0.2      -0.0       0.0      -0.0
 14 H               -16.0      -7.3      -4.7     -16.1      -7.1      -8.5
 15 H               -12.9      -3.3      -9.9     -15.6      -2.5      -2.1
 16 H                 0.4       0.2      -0.5       0.8       0.4      -0.0
 17 H                 0.2       0.2      -0.1       0.6      -0.3      -0.0
 18 H                -0.3       0.0       0.0       0.0      -0.0      -0.0
 19 H                -0.0      -0.1      -0.2      -0.1       0.0      -0.0

                     90        91        92        93        94        95   
                   0.00000   0.00000   0.00000   0.00000   0.00000   0.00000
                   0.00011   0.00004   0.00003   0.00468   0.00247   0.00057
                  --------  --------  --------  --------  --------  --------
  0 C                -0.1      -0.0       0.1       0.1      -0.2       0.0
  1 C                -0.3       0.1       0.1      -1.9      -0.0      -0.0
  2 C                -4.8      -1.1      -1.1       6.6       3.4      -1.0
  3 N                 0.1      -0.1      -0.2      -0.5      -0.1      -0.0
  4 C               115.9     104.7     109.6     -24.4     -18.9     -20.4
  5 C                -3.3      -1.8      -0.0     161.6     154.8     142.6
  6 C                 0.5      -0.0      -0.3     -25.2     -18.7     -21.0
 14 H                -0.8      -0.6      -2.1      -0.2       0.5       0.4
 15 H                -6.9      -1.1      -6.0       0.3      -0.2      -0.0
 16 H                -0.0      -0.0       0.0     -10.8      -4.4      -1.4
 17 H                -0.1      -0.1      -0.0      -5.6     -16.6       0.6
 18 H                 0.1      -0.0      -0.0      -0.2       0.5       0.5
 19 H                -0.2      -0.0       0.0       0.4      -0.1      -0.1

                     96        97        98        99       100       101   
                   0.00000   0.00000   0.00000   0.00000   0.00000   0.00000
                   0.00026   0.00019   0.00006   0.00005   0.00005   0.00001
                  --------  --------  --------  --------  --------  --------
  1 C                -0.0      -0.7      -1.1      -0.0      -0.0      -0.1
  2 C                 0.0       4.8      -1.8       0.6      -0.0      -1.0
  3 N                -0.1      -0.1       0.4       0.0      -0.0       0.2
  4 C                -3.5     -41.5     -10.9      -4.1      -1.2      -1.3
  5 C               108.6     232.0     130.2     112.9     104.2     117.5
  6 C                -1.0     -42.7     -11.3      -4.0      -1.4      -1.4
 14 H                -0.3       0.4       0.1       0.1      -0.1       0.2
 15 H                 0.3       0.3      -0.2       0.0      -0.0       0.0
 16 H                -0.7     -31.4      -4.6      -3.4      -1.0      -4.2
 17 H                -3.3     -21.7      -0.6      -2.2      -0.4     -10.0
 18 H                -0.3       0.4       0.1       0.1      -0.1       0.2
 19 H                 0.2       0.4      -0.2       0.0      -0.0       0.0

                    102       103       104       105       106       107   
                   0.00000   0.00000   0.00000   0.00000   0.00000   0.00000
                   0.00442   0.00343   0.00204   0.00046   0.00024   0.00012
                  --------  --------  --------  --------  --------  --------
  0 C                -1.2       0.1      -0.5       0.1       0.0       0.0
  1 C                 0.6      -1.2       3.3      -0.5      -0.1      -0.3
  2 C               -15.2     -15.0     -85.8      -5.8       0.3      -3.1
  3 N                -1.3      -1.0       1.3      -0.0      -0.3       0.5
  4 C                 2.1       6.8       4.3       2.6      -0.0       0.0
  5 C               -15.4     -38.5      -2.1     -56.9      -4.7      -0.1
  6 C               158.8     158.9     195.6     191.8     114.5     112.6
  9 H                 0.3       0.0      -0.1      -0.2      -0.0      -0.0
 10 H                -0.1      -0.0      -0.3      -0.0      -0.0      -0.0
 11 H                -0.0      -0.1      -0.1      -0.0       0.0      -0.0
 12 H                -0.0      -0.1      -0.2      -0.0       0.0      -0.0
 14 H                -0.3       0.0       0.0       0.0      -0.0      -0.0
 15 H                -0.0      -0.1      -0.2      -0.1      -0.0      -0.0
 16 H                 0.3       0.2      -0.5       0.8       0.4      -0.0
 17 H                 0.2       0.2      -0.1       0.6      -0.2      -0.0
 18 H               -15.8      -6.7      -5.3     -16.5      -7.1      -8.2
 19 H               -13.2      -3.4      -9.5     -15.8      -2.6      -1.3

                    108       109       110       111       112       113   
                   0.00000   0.00000   0.00000   0.00000   0.00000   0.00000
                   0.00011   0.00004   0.00003   0.00172   0.00017   0.00012
                  --------  --------  --------  --------  --------  --------
  0 C                -0.1      -0.0       0.1     -34.6      -2.9      -3.3
  1 C                -0.2       0.2       0.1       0.6      -0.2      -0.1
  2 C                -4.5      -1.1      -1.0      -0.4      -0.0      -0.1
  3 N                 0.0      -0.1      -0.2      -0.1      -0.0      -0.0
  4 C                 0.5      -0.0      -0.3       0.0      -0.0       0.0
  5 C                -3.8      -1.8      -0.1       0.0      -0.0      -0.0
  6 C               116.8     104.5     109.6       0.0      -0.0       0.0
  7 H                 0.0      -0.0      -0.0     135.5     104.0     104.5
  8 H                -0.0       0.0      -0.0      -0.2      -0.3      -0.4
  9 H                -0.0       0.0       0.0      -0.2      -0.4      -0.4
 10 H                -0.0       0.0      -0.0      -0.3      -0.0      -0.0
 11 H                -0.1      -0.0      -0.0      -0.3      -0.0      -0.0
 15 H                -0.1      -0.0       0.0      -0.0      -0.0      -0.0
 17 H                -0.1      -0.1      -0.0      -0.0      -0.0      -0.0
 18 H                -1.0      -0.5      -2.0      -0.0      -0.0      -0.0
 19 H                -7.3      -0.9      -6.3      -0.0      -0.0      -0.0

                    114       115       116       117       118       119   
                   0.00000   0.00000   0.00000   0.00000   0.00000   0.00000
                   0.00002   0.00163   0.00018   0.00013   0.00003   0.00163
                  --------  --------  --------  --------  --------  --------
  0 C                -7.8     -36.5      -3.0      -3.3      -7.9     -36.7
  1 C                -0.3      -0.1      -0.1      -0.1      -0.1      -0.1
  2 C                -0.1       0.1      -0.0      -0.0      -0.0       0.1
  4 C                -0.0       0.2      -0.0      -0.0      -0.0      -0.1
  6 C                -0.0      -0.1      -0.0      -0.0      -0.0       0.2
  7 H               108.5      -0.1      -0.3      -0.4      -0.1      -0.1
  8 H                -0.1     145.3     104.1     104.3     108.7      -0.5
  9 H                -0.1      -0.5      -0.3      -0.4      -0.1     145.5
 10 H                -0.0      -0.3      -0.0      -0.0      -0.0      -0.0
 11 H                -0.0      -0.0      -0.0      -0.0      -0.0      -0.3
 14 H                -0.0      -7.9      -0.0      -0.0      -0.3       0.0
 18 H                -0.0       0.0      -0.0      -0.0       0.0      -8.0

                    120       121       122       123       124       125   
                   0.00000   0.00000   0.00000   0.00000   0.00000   0.00000
                   0.00017   0.00012   0.00003   0.00402   0.00013   0.00009
                  --------  --------  --------  --------  --------  --------
  0 C                -3.1      -3.3      -7.9       0.2      -0.1      -0.2
  1 C                -0.1      -0.1      -0.1     -31.7      -3.2      -2.8
  2 C                -0.0       0.0      -0.0       0.7      -0.2      -0.3
  3 N                -0.1      -0.0      -0.0      -0.0      -0.1      -0.2
  4 C                -0.0      -0.0      -0.0      -0.2      -0.0      -0.1
  6 C                -0.0      -0.0      -0.0      -0.2      -0.1      -0.1
  7 H                -0.4      -0.4      -0.1      -0.3      -0.0      -0.0
  8 H                -0.3      -0.5      -0.1      -0.3      -0.0      -0.0
  9 H               104.1     104.3     108.6      -0.0      -0.0      -0.0
 10 H                -0.0      -0.0      -0.0     133.7     104.4     104.4
 11 H                -0.0      -0.0      -0.0      -0.2      -0.5      -0.6
 12 H                -0.0      -0.0      -0.0      -1.7      -0.0      -0.0
 18 H                -0.0      -0.0      -0.3       0.0      -0.0      -0.0

                    126       127       128       129       130       131   
                   0.00000   0.00000   0.00000   0.00000   0.00000   0.00000
                   0.00003   0.00402   0.00014   0.00009   0.00003   0.00294
                  --------  --------  --------  --------  --------  --------
  0 C                -0.1       0.2      -0.1      -0.3      -0.1      -0.1
  1 C                -8.2     -31.2      -3.2      -2.8      -8.2      -0.3
  2 C                -0.1       0.7      -0.2      -0.3      -0.1      -2.5
  3 N                -0.0      -0.0      -0.1      -0.2      -0.0      -8.2
  4 C                 0.0      -0.2      -0.1      -0.1      -0.0       0.2
  6 C                -0.0      -0.2      -0.0      -0.1       0.0      -0.1
  7 H                -0.0      -0.3      -0.0      -0.0      -0.0       0.0
  9 H                -0.0      -0.3      -0.0      -0.0      -0.0      -0.0
 10 H               108.6      -0.2      -0.5      -0.6      -0.0      -1.7
 11 H                -0.0     133.3     104.4     104.4     108.7       0.0
 12 H                -0.1       0.0      -0.0      -0.0      -0.0     115.5
 13 H                -0.0      -1.7      -0.0      -0.0      -0.1      -1.7
 15 H                -0.0      -0.0      -0.0      -0.0      -0.0      -1.2

                    132       133       134       135       136       137   
                   0.00000   0.00000   0.00000   0.00000   0.00000   0.00000
                   0.00083   0.00031   0.00002   0.00297   0.00082   0.00033
                  --------  --------  --------  --------  --------  --------
  0 C                -0.0      -0.0      -0.0      -0.1      -0.0      -0.0
  1 C                -0.0      -0.1      -0.0      -0.3      -0.0      -0.1
  2 C                -0.2      -0.4      -0.1      -2.5      -0.2      -0.4
  3 N                -3.7      -3.0      -5.4      -8.2      -3.5      -3.0
  6 C                -0.0      -0.1      -0.0       0.2      -0.1      -0.1
 11 H                -0.0      -0.0       0.0      -1.6       0.0      -0.0
 12 H               104.5     104.3     106.1      -1.7      -0.3      -0.5
 13 H                -0.3      -0.5      -0.3     115.5     104.4     104.3
 19 H                -0.0       0.0      -0.0      -1.2      -0.1      -0.0

                    138       139       140       141       142       143   
                   0.00000   0.00000   0.00000   0.00000   0.00000   0.00000
                   0.00002   0.00225   0.00013   0.00011   0.00003   0.00246
                  --------  --------  --------  --------  --------  --------
  0 C                -0.0      -0.6      -0.0      -0.0      -0.0      -0.0
  1 C                -0.0      -0.4      -0.1      -0.0      -0.0       0.1
  2 C                -0.1       1.4      -0.3       0.0      -0.5       1.3
  3 N                -5.1      -0.0      -0.2      -0.0      -0.0      -0.5
  4 C                 0.0     -42.5      -2.9      -4.7      -6.7     -38.3
  5 C                -0.0       0.7      -0.1      -0.1      -0.3       0.6
  6 C                -0.0      -0.0      -0.1      -0.1      -0.0      -0.4
  8 H                -0.0      -8.0       0.0      -0.1      -0.0       0.0
 12 H                -0.3      -0.0      -0.0      -0.0      -0.0      -1.3
 13 H               105.8      -0.0      -0.0      -0.0      -0.0      -0.0
 14 H                -0.0     151.3     104.1     105.9     107.5      -0.7
 15 H                -0.0      -0.7      -0.4      -0.8       0.1     140.0
 16 H                -0.0      -1.1      -0.0      -0.0      -0.0       0.0
 17 H                -0.0       0.0      -0.0      -0.0      -0.0      -0.7

                    144       145       146       147       148       149   
                   0.00000   0.00000   0.00000   0.00000   0.00000   0.00000
                   0.00013   0.00008   0.00002   0.00196   0.00012   0.00011
                  --------  --------  --------  --------  --------  --------
  2 C                 0.1      -0.1      -0.4      -0.8      -0.0      -0.0
  4 C                -4.6      -2.8      -7.2       1.3      -0.2      -0.2
  5 C                -0.1      -0.2      -0.4     -39.7      -4.1      -2.7
  6 C                -0.1      -0.0      -0.0       1.3      -0.2      -0.2
 14 H                -0.8      -0.3       0.0      -1.0      -0.0      -0.0
 15 H               105.6     103.7     108.2       0.0      -0.0      -0.0
 16 H                -0.0      -0.0      -0.0     140.8     105.5     103.5
 17 H                -0.0      -0.0      -0.0      -0.9      -0.8      -0.3
 18 H                -0.0      -0.0      -0.0      -1.0      -0.0      -0.0

                    150       151       152       153       154       155   
                   0.00000   0.00000   0.00000   0.00000   0.00000   0.00000
                   0.00003   0.00338   0.00013   0.00012   0.00003   0.00226
                  --------  --------  --------  --------  --------  --------
  0 C                -0.0       0.0      -0.0      -0.0       0.0      -0.6
  1 C                -0.0       0.1      -0.1      -0.0      -0.0      -0.4
  2 C                 0.0       0.6      -0.0      -0.0      -0.1       1.4
  3 N                 0.0      -0.6      -0.0      -0.0      -0.0       0.0
  4 C                -0.4       0.4      -0.2      -0.2      -0.2      -0.1
  5 C                -7.4     -38.4      -3.8      -2.8      -7.7       0.7
  6 C                -0.4       0.4      -0.2      -0.2      -0.2     -42.6
  9 H                -0.0       0.0      -0.0      -0.0      -0.0      -7.9
 15 H                -0.0      -0.8      -0.0      -0.0       0.0      -0.0
 16 H               108.3      -0.9      -0.7      -0.3       0.1      -1.0
 17 H                 0.0     140.0     105.2     103.6     108.2       0.0
 18 H                -0.0       0.0      -0.0      -0.0      -0.0     151.3
 19 H                -0.0      -0.8      -0.0      -0.0       0.0      -0.7

                    156       157       158       159       160       161   
                   0.00000   0.00000   0.00000   0.00000   0.00000   0.00000
                   0.00014   0.00012   0.00003   0.00242   0.00012   0.00008
                  --------  --------  --------  --------  --------  --------
  2 C                -0.3      -0.0      -0.4       1.3       0.1      -0.1
  3 N                -0.2      -0.0      -0.0      -0.5      -0.0      -0.0
  4 C                -0.1      -0.1      -0.0      -0.4      -0.1      -0.0
  5 C                -0.1      -0.1      -0.3       0.6      -0.0      -0.2
  6 C                -2.8      -4.6      -6.7     -38.1      -4.7      -2.8
 13 H                -0.0      -0.0      -0.0      -1.3      -0.0      -0.0
 17 H                -0.0      -0.0      -0.0      -0.7      -0.0      -0.0
 18 H               104.0     105.8     107.6      -0.7      -0.9      -0.3
 19 H                -0.4      -0.8       0.0     139.8     105.8     103.7

                    162   
                   0.00000
                   0.00002
                  --------
  2 C                -0.4
  5 C                -0.4
  6 C                -7.2
 19 H               108.2

Storing NBOs: 2009.nbo
                                    *** NBOs were stored ***

                                *** returned from GENNBO program ***

-------
TIMINGS
-------

Total SCF time: 0 days 0 hours 0 min 6 sec 

Total time                  ....       6.687 sec
Sum of individual times     ....       7.323 sec  (109.5%)

Fock matrix formation       ....       4.147 sec  ( 62.0%)
  Coulomb formation         ....       2.045 sec  ( 49.3% of F)
  Split-RI-J                ....       2.037 sec  ( 49.1% of F)
  XC integration            ....       2.097 sec  ( 50.6% of F)
    Basis function eval.    ....       0.668 sec  ( 31.8% of XC)
    Density eval.           ....       0.391 sec  ( 18.7% of XC)
    XC-Functional eval.     ....       0.098 sec  (  4.7% of XC)
    XC-Potential eval.      ....       0.901 sec  ( 43.0% of XC)
Diagonalization             ....       0.039 sec  (  0.6%)
Density matrix formation    ....       0.003 sec  (  0.0%)
Population analysis         ....       1.750 sec  ( 26.2%)
Initial guess               ....       0.487 sec  (  7.3%)
Orbital Transformation      ....       0.000 sec  (  0.0%)
Orbital Orthonormalization  ....       0.000 sec  (  0.0%)
DIIS solution               ....       0.009 sec  (  0.1%)
SOSCF solution              ....       0.009 sec  (  0.1%)
Grid generation             ....       0.879 sec  ( 13.1%)
           ************************************************************
           *              Shut down parallel processing               *
           ************************************************************

-------------------------   --------------------
FINAL SINGLE POINT ENERGY      -290.576581672497
-------------------------   --------------------


                            ***************************************
                            *     ORCA property calculations      *
                            ***************************************

                                    ---------------------
                                    Active property flags
                                    ---------------------
   (+) Dipole Moment


------------------------------------------------------------------------------
                       ORCA ELECTRIC PROPERTIES CALCULATION
------------------------------------------------------------------------------

Dipole Moment Calculation                       ... on
Quadrupole Moment Calculation                   ... off
Polarizability Calculation                      ... off
GBWName                                         ... 2009.gbw
Electron density file                           ... 2009.scfp.tmp

-------------
DIPOLE MOMENT
-------------
                                X             Y             Z
Electronic contribution:      2.51711      -0.17033       1.69463
Nuclear contribution   :     -2.55806       0.42726      -2.10456
                        -----------------------------------------
Total Dipole Moment    :     -0.04095       0.25693      -0.40993
                        -----------------------------------------
Magnitude (a.u.)       :      0.48552
Magnitude (Debye)      :      1.23410


Timings for individual modules:

Sum of individual times         ...        7.998 sec (=   0.133 min)
GTO integral calculation        ...        0.486 sec (=   0.008 min)   6.1 %
SCF iterations                  ...        7.512 sec (=   0.125 min)  93.9 %
                             ****ORCA TERMINATED NORMALLY****
TOTAL RUN TIME: 0 days 0 hours 0 minutes 8 seconds 404 msec
