
                                 *****************
                                 * O   R   C   A *
                                 *****************

           --- An Ab Initio, DFT and Semiempirical electronic structure package ---

                  #######################################################
                  #                        -***-                        #
                  #  Department of molecular theory and spectroscopy    #
                  #              Directorship: Frank Neese              #
                  # Max Planck Institute for Chemical Energy Conversion #
                  #                  D-45470 Muelheim/Ruhr              #
                  #                       Germany                       #
                  #                                                     #
                  #                  All rights reserved                #
                  #                        -***-                        #
                  #######################################################


                         Program Version 3.0.3 - RELEASE   -


 With contributions from (in alphabetic order):
   Ute Becker             : Parallelization
   Dmytro Bykov           : SCF Hessian
   Dmitry Ganyushin       : Spin-Orbit,Spin-Spin,Magnetic field MRCI
   Andreas Hansen         : Spin unrestricted coupled pair/coupled cluster methods
   Dimitrios Liakos       : Extrapolation schemes; parallel MDCI
   Robert Izsak           : Overlap fitted RIJCOSX, COSX-SCS-MP3
   Christian Kollmar      : KDIIS, OOCD, Brueckner-CCSD(T), CCSD density
   Simone Kossmann        : Meta GGA functionals, TD-DFT gradient, OOMP2, MP2 Hessian
   Taras Petrenko         : DFT Hessian,TD-DFT gradient, ASA and ECA modules, normal mode analysis, Resonance Raman, ABS, FL, XAS/XES, NRVS
   Christoph Reimann      : Effective Core Potentials
   Michael Roemelt        : Restricted open shell CIS
   Christoph Riplinger    : Improved optimizer, TS searches, QM/MM, DLPNO-CCSD
   Barbara Sandhoefer     : DKH picture change effects
   Igor Schapiro          : Molecular dynamics
   Kantharuban Sivalingam : CASSCF convergence, NEVPT2
   Boris Wezisla          : Elementary symmetry handling
   Frank Wennmohs         : Technical directorship


 We gratefully acknowledge several colleagues who have allowed us to
 interface, adapt or use parts of their codes:
   Stefan Grimme, W. Hujo, H. Kruse, T. Risthaus : VdW corrections, initial TS optimization,
                                                   DFT functionals, gCP
   Ed Valeev                                     : LibInt (2-el integral package), F12 methods
   Garnet Chan, S. Sharma, R. Olivares           : DMRG
   Ulf Ekstrom                                   : XCFun DFT Library
   Mihaly Kallay                                 : mrcc  (arbitrary order and MRCC methods)
   Andreas Klamt, Michael Diedenhofen            : otool_cosmo (COSMO solvation model)
   Frank Weinhold                                : gennbo (NPA and NBO analysis)
   Christopher J. Cramer and Donald G. Truhlar   : smd solvation model


 Your calculation uses the libint2 library for the computation of 2-el integrals
 For citations please refer to: http://libint.valeyev.net

 This ORCA versions uses:
   CBLAS   interface :  Fast vector & matrix operations
   LAPACKE interface :  Fast linear algebra routines
   SCALAPACK package :  Parallel linear algebra routines


Your calculation utilizes the basis: Ahlrichs-VDZ
Cite in your paper:
H - Kr: A. Schaefer, H. Horn and R. Ahlrichs, J. Chem. Phys. 97, 2571 (1992).

Your calculation utilizes the basis: Ahlrichs SVPalls1+f
Cite in your paper:
Rb - Xe: A. Schaefer, C. Huber and R. Ahlrichs, J. Chem. Phys. 100, 5829 (1994).

================================================================================
                                        WARNINGS
                       Please study these warnings very carefully!
================================================================================
Now building the actual basis set


INFO   : the flag for use of LIBINT has been found!

================================================================================
                                       INPUT FILE
================================================================================
NAME = 2485.inp
|  1> ! RI PBE def2-SVP def2-SVP/J NBO PAL2
|  2> % maxcore 2000
|  3> % output
|  4>     # printlevel mini
|  5>     print[ P_Basis ] 0
|  6>     print[ P_SCFInfo ] 1
|  7>     print[ P_SCFIterInfo ] 1
|  8>     print[ P_OrbEn ] 0
|  9>     print[ P_Cartesian ] 0
| 10> end
| 11> *xyz 0 1
| 12>  C        3.1464950000    -0.9725590000    -0.8775400000 
| 13>  C        2.6680900000     0.0247950000     0.1584570000 
| 14>  N        3.1473690000     1.3779460000    -0.0722280000 
| 15>  C        2.5104030000     2.3215260000     0.8194490000 
| 16>  C        4.5925910000     1.5044060000    -0.0519410000 
| 17>  C        5.2379140000     1.1475000000     1.2179480000 
| 18>  C        5.7361150000     0.8424650000     2.2676840000 
| 19>  H        2.6316820000    -1.9256560000    -0.7389020000 
| 20>  H        4.2170690000    -1.1725950000    -0.7961580000 
| 21>  H        2.9363410000    -0.6129750000    -1.8875710000 
| 22>  H        2.9378640000    -0.3311570000     1.1686080000 
| 23>  H        1.5755130000     0.0748790000     0.1275340000 
| 24>  H        1.4278930000     2.2742490000     0.6817420000 
| 25>  H        2.8376480000     3.3361250000     0.5794130000 
| 26>  H        2.7303470000     2.1330410000     1.8831950000 
| 27>  H        4.8461770000     2.5406380000    -0.2968480000 
| 28>  H        5.0188410000     0.8886440000    -0.8481220000 
| 29>  H        6.1862490000     0.5767180000     3.1949800000 
| 30> *
| 31> 
| 32>                          ****END OF INPUT****
================================================================================

                       ****************************
                       * Single Point Calculation *
                       ****************************

--------------------------------
INTERNAL COORDINATES (ANGSTROEM)
--------------------------------
 C      0   0   0   0.000000     0.000     0.000
 C      1   0   0   1.515545     0.000     0.000
 N      2   1   0   1.453940   113.575     0.000
 C      3   2   1   1.446083   111.361   171.534
 C      3   2   1   1.450886   114.032   299.358
 C      5   3   2   1.468483   115.381   298.451
 C      6   5   3   1.201331   178.367    10.769
 H      1   2   3   1.092084   109.800   188.761
 H      1   2   3   1.092138   112.274    69.831
 H      1   2   3   1.092533   110.772   308.325
 H      2   1   3   1.104484   109.634   234.693
 H      2   1   3   1.094161   109.027   118.427
 H      4   3   2   1.092257   109.303   302.124
 H      4   3   2   1.092757   109.784   183.813
 H      4   3   2   1.102478   113.299    62.836
 H      5   3   2   1.094560   108.069   176.485
 H      5   3   2   1.093049   109.218    61.295
 H      7   6   5   1.064481   179.450   184.295

---------------------------
INTERNAL COORDINATES (A.U.)
---------------------------
 C      0   0   0   0.000000     0.000     0.000
 C      1   0   0   2.863965     0.000     0.000
 N      2   1   0   2.747548   113.575     0.000
 C      3   2   1   2.732701   111.361   171.534
 C      3   2   1   2.741777   114.032   299.358
 C      5   3   2   2.775030   115.381   298.451
 C      6   5   3   2.270187   178.367    10.769
 H      1   2   3   2.063739   109.800   188.761
 H      1   2   3   2.063842   112.274    69.831
 H      1   2   3   2.064588   110.772   308.325
 H      2   1   3   2.087172   109.634   234.693
 H      2   1   3   2.067665   109.027   118.427
 H      4   3   2   2.064067   109.303   302.124
 H      4   3   2   2.065011   109.784   183.813
 H      4   3   2   2.083381   113.299    62.836
 H      5   3   2   2.068419   108.069   176.485
 H      5   3   2   2.065563   109.218    61.295
 H      7   6   5   2.011578   179.450   184.295



           ************************************************************
           *        Program running with 2 parallel MPI-processes     *
           *              working on a common directory               *
           ************************************************************
------------------------------------------------------------------------------
                           ORCA GTO INTEGRAL CALCULATION
                           -- RI-GTO INTEGRALS CHOSEN --
------------------------------------------------------------------------------

                         BASIS SET STATISTICS AND STARTUP INFO

Gaussian basis set:
 # of primitive gaussian shells          ...  139
 # of primitive gaussian functions       ...  245
 # of contracted shells                  ...   75
 # of contracted basis functions         ...  153
 Highest angular momentum                ...    2
 Maximum contraction depth               ...    5
Auxiliary gaussian basis set:
 # of primitive gaussian shells          ...  256
 # of primitive gaussian functions       ...  666
 # of contracted shells                  ...  160
 # of contracted aux-basis functions     ...  464
 Highest angular momentum                ...    4
 Maximum contraction depth               ...    7
Ratio of auxiliary to basis functions    ...  3.03
Integral package used                  ... LIBINT
 One Electron integrals                  ... done
 Ordering auxiliary basis shells         ... done
 Integral threshhold             Thresh  ...  1.000e-10
 Primitive cut-off               TCut    ...  1.000e-11
 Pre-screening matrix                    ... done
 Shell pair data                         ... 
 Ordering of the shell pairs             ... done (   0.000 sec) 2756 of 2850 pairs
 Determination of significant pairs      ... done (   0.000 sec)
 Creation of shell pair data             ... done (   0.000 sec)
 Storage of shell pair data              ... done (   0.000 sec)
 Shell pair data done in (   0.001 sec)
 Computing two index integrals           ... done
 Cholesky decomposition of the V-matrix  ... done


Timings:
 Total evaluation time                   ...   0.162 sec (  0.003 min)
 One electron matrix time                ...   0.021 sec (  0.000 min) = 13.1%
 Schwartz matrix evaluation time         ...   0.077 sec (  0.001 min) = 47.4%
 Two index repulsion integral time       ...   0.004 sec (  0.000 min) =  2.6%
 Cholesky decomposition of V             ...   0.004 sec (  0.000 min) =  2.2%
 Three index repulsion integral time     ...   0.000 sec (  0.000 min) =  0.0%

           ************************************************************
           *              Shut down parallel processing               *
           ************************************************************


           ************************************************************
           *        Program running with 2 parallel MPI-processes     *
           *              working on a common directory               *
           ************************************************************
-------------------------------------------------------------------------------
                                 ORCA SCF
-------------------------------------------------------------------------------

------------
SCF SETTINGS
------------
Hamiltonian:
 Density Functional     Method          .... DFT(GTOs)
 Exchange Functional    Exchange        .... PBE
   PBE kappa parameter  XKappa          ....  0.804000
 Correlation Functional Correlation     .... PBE
 LDA part of GGA corr.  LDAOpt          .... PW91-LDA
 Gradients option       PostSCFGGA      .... off
   NL short-range parameter             ....  6.400000
 RI-approximation to the Coulomb term is turned on
   Number of auxiliary basis functions  .... 464


General Settings:
 Integral files         IntName         .... 2485
 Hartree-Fock type      HFTyp           .... RHF
 Total Charge           Charge          ....    0
 Multiplicity           Mult            ....    1
 Number of Electrons    NEL             ....   54
 Basis Dimension        Dim             ....  153
 Nuclear Repulsion      ENuc            ....    299.1537263550 Eh

Convergence Acceleration:
 DIIS                   CNVDIIS         .... on
   Start iteration      DIISMaxIt       ....    12
   Startup error        DIISStart       ....  0.200000
   # of expansion vecs  DIISMaxEq       ....     5
   Bias factor          DIISBfac        ....   1.050
   Max. coefficient     DIISMaxC        ....  10.000
 Newton-Raphson         CNVNR           .... off
 SOSCF                  CNVSOSCF        .... on
   Start iteration      SOSCFMaxIt      ....   150
   Startup grad/error   SOSCFStart      ....  0.003300
 Level Shifting         CNVShift        .... on
   Level shift para.    LevelShift      ....    0.2500
   Turn off err/grad.   ShiftErr        ....    0.0010
 Zerner damping         CNVZerner       .... off
 Static damping         CNVDamp         .... on
   Fraction old density DampFac         ....    0.7000
   Max. Damping (<1)    DampMax         ....    0.9800
   Min. Damping (>=0)   DampMin         ....    0.0000
   Turn off err/grad.   DampErr         ....    0.1000
 Fernandez-Rico         CNVRico         .... off

SCF Procedure:
 Maximum # iterations   MaxIter         ....   125
 SCF integral mode      SCFMode         .... Direct
   Integral package                     .... LIBINT
 Reset frequeny         DirectResetFreq ....    20
 Integral Threshold     Thresh          ....  1.000e-10 Eh
 Primitive CutOff       TCut            ....  1.000e-11 Eh

Convergence Tolerance:
 Convergence Check Mode ConvCheckMode   .... Total+1el-Energy
 Energy Change          TolE            ....  1.000e-06 Eh
 1-El. energy change                    ....  1.000e-03 Eh
 Orbital Gradient       TolG            ....  5.000e-05
 Orbital Rotation angle TolX            ....  5.000e-05
 DIIS Error             TolErr          ....  1.000e-06


Diagonalization of the overlap matrix:
Smallest eigenvalue                        ... 6.689e-04
Time for diagonalization                   ...    0.013 sec
Threshold for overlap eigenvalues          ... 1.000e-08
Number of eigenvalues below threshold      ... 0
Time for construction of square roots      ...    0.003 sec
Total time needed                          ...    0.016 sec

-------------------
DFT GRID GENERATION
-------------------

General Integration Accuracy     IntAcc      ...  4.340
Radial Grid Type                 RadialGrid  ... Gauss-Chebyshev
Angular Grid (max. acc.)         AngularGrid ... Lebedev-110
Angular grid pruning method      GridPruning ... 3 (G Style)
Weight generation scheme         WeightScheme... Becke
Basis function cutoff            BFCut       ...    1.0000e-10
Integration weight cutoff        WCut        ...    1.0000e-14
Grids for H and He will be reduced by one unit

# of grid points (after initial pruning)     ...  20372 (   0.0 sec)
# of grid points (after weights+screening)   ...  18705 (   0.1 sec)
nearest neighbour list constructed           ...    0.0 sec
Grid point re-assignment to atoms done       ...    0.0 sec
Grid point division into batches done        ...    0.0 sec
Reduced shell lists constructed in    0.1 sec

Total number of grid points                  ...    18705
Total number of batches                      ...      302
Average number of points per batch           ...       61
Average number of grid points per atom       ...     1039
Average number of shells per batch           ...    57.68 (76.90%)
Average number of basis functions per batch  ...   115.27 (75.34%)
Average number of large shells per batch     ...    46.09 (79.91%)
Average number of large basis fcns per batch ...    89.57 (77.70%)
Maximum spatial batch extension              ...  18.52, 18.05, 21.05 au
Average spatial batch extension              ...   1.47,  1.41,  1.40 au

Time for grid setup =    0.158 sec

------------------------------
INITIAL GUESS: MODEL POTENTIAL
------------------------------
Loading Hartree-Fock densities                     ... done
Calculating cut-offs                               ... done
Setting up the integral package                    ... done
Initializing the effective Hamiltonian             ... done
Starting the Coulomb interaction                   ... done (   0.1 sec)
Reading the grid                                   ... done
Mapping shells                                     ... done
Starting the XC term evaluation                    ... done (   0.1 sec)
  promolecular density results
     # of electrons  =     53.990966976
     EX              =    -40.429149314
     EC              =     -1.751154422
     EX+EC           =    -42.180303736
Transforming the Hamiltonian                       ... done (   0.0 sec)
Diagonalizing the Hamiltonian                      ... done (   0.0 sec)
Back transforming the eigenvectors                 ... done (   0.0 sec)
Now organizing SCF variables                       ... done
                      ------------------
                      INITIAL GUESS DONE (   0.4 sec)
                      ------------------
--------------
SCF ITERATIONS
--------------
ITER       Energy         Delta-E        Max-DP      RMS-DP      [F,P]     Damp
               ***  Starting incremental Fock matrix formation  ***
  0   -289.1351319696   0.000000000000 0.07310129  0.00253039  0.1540938 0.7000
  1   -289.2219053241  -0.086773354495 0.04150023  0.00188054  0.0732276 0.7000
                               ***Turning on DIIS***
  2   -289.2545450902  -0.032639766165 0.05500198  0.00301254  0.0258170 0.0000
  3   -289.2993126812  -0.044767591004 0.03470478  0.00137933  0.0467676 0.0000
  4   -289.3146429502  -0.015330268943 0.00871540  0.00038384  0.0108737 0.0000
  5   -289.3154030808  -0.000760130681 0.00403807  0.00018227  0.0041643 0.0000
                      *** Initiating the SOSCF procedure ***
                           *** Shutting down DIIS ***
                      *** Re-Reading the Fockian *** 
                      *** Removing any level shift *** 
ITER      Energy       Delta-E        Grad      Rot      Max-DP    RMS-DP
  6   -289.31546970  -0.0000666187  0.000275  0.000275  0.001298  0.000060
               *** Restarting incremental Fock matrix formation ***
  7   -289.31547595  -0.0000062487  0.000127  0.000273  0.001071  0.000039
  8   -289.31547502   0.0000009282  0.000294  0.000452  0.000576  0.000021
  9   -289.31547680  -0.0000017823  0.000183  0.000491  0.000584  0.000016
 10   -289.31547610   0.0000007055  0.000298  0.000303  0.000343  0.000011
 11   -289.31547701  -0.0000009138  0.000023  0.000053  0.000124  0.000006
 12   -289.31547698   0.0000000328  0.000035  0.000026  0.000071  0.000003
                 **** Energy Check signals convergence ****
              ***Rediagonalizing the Fockian in SOSCF/NRSCF***

               *****************************************************
               *                     SUCCESS                       *
               *           SCF CONVERGED AFTER  13 CYCLES          *
               *****************************************************

Setting up the final grid:

General Integration Accuracy     IntAcc      ...  4.670
Radial Grid Type                 RadialGrid  ... Gauss-Chebyshev
Angular Grid (max. acc.)         AngularGrid ... Lebedev-302
Angular grid pruning method      GridPruning ... 3 (G Style)
Weight generation scheme         WeightScheme... Becke
Basis function cutoff            BFCut       ...    1.0000e-10
Integration weight cutoff        WCut        ...    1.0000e-14
Grids for H and He will be reduced by one unit

# of grid points (after initial pruning)     ...  80818 (   0.0 sec)
# of grid points (after weights+screening)   ...  73186 (   0.1 sec)
nearest neighbour list constructed           ...    0.0 sec
Grid point re-assignment to atoms done       ...    0.0 sec
Grid point division into batches done        ...    0.2 sec
Reduced shell lists constructed in    0.5 sec

Total number of grid points                  ...    73186
Total number of batches                      ...     1152
Average number of points per batch           ...       63
Average number of grid points per atom       ...     4066
Average number of shells per batch           ...    54.26 (72.35%)
Average number of basis functions per batch  ...   107.24 (70.09%)
Average number of large shells per batch     ...    42.41 (78.16%)
Average number of large basis fcns per batch ...    81.61 (76.10%)
Maximum spatial batch extension              ...  17.86, 18.35, 17.61 au
Average spatial batch extension              ...   0.96,  0.94,  0.90 au

Final grid set up in    0.6 sec
Final integration                            ... done (   0.5 sec)
Change in XC energy                          ...     0.000601711
Integrated number of electrons               ...    53.999682710
Previous integrated no of electrons          ...    54.000175584

----------------
TOTAL SCF ENERGY
----------------

Total Energy       :         -289.31487532 Eh           -7872.65800 eV

Components:
Nuclear Repulsion  :          299.15372635 Eh            8140.38674 eV
Electronic Energy  :         -588.46860167 Eh          -16013.04474 eV

One Electron Energy:         -981.82189265 Eh          -26716.73195 eV
Two Electron Energy:          393.35329098 Eh           10703.68721 eV

Virial components:
Potential Energy   :         -575.62320041 Eh          -15663.50360 eV
Kinetic Energy     :          286.30832509 Eh            7790.84560 eV
Virial Ratio       :            2.01050109


DFT components:
N(Alpha)           :       26.999841354950 electrons
N(Beta)            :       26.999841354950 electrons
N(Total)           :       53.999682709900 electrons
E(X)               :      -41.337220069167 Eh       
E(C)               :       -1.765025149138 Eh       
E(XC)              :      -43.102245218305 Eh       

---------------
SCF CONVERGENCE
---------------

  Last Energy change         ...   -5.1092e-08  Tolerance :   1.0000e-06
  Last MAX-Density change    ...    1.2983e-05  Tolerance :   1.0000e-05
  Last RMS-Density change    ...    5.7056e-07  Tolerance :   1.0000e-06
  Last Orbital Gradient      ...    2.3042e-06  Tolerance :   5.0000e-05
  Last Orbital Rotation      ...    5.4032e-06  Tolerance :   5.0000e-05

             **** THE GBW FILE WAS UPDATED (2485.gbw) ****
             **** DENSITY FILE WAS UPDATED (2485.scfp.tmp) ****
             **** ENERGY FILE WAS UPDATED (2485.en.tmp) ****

                    ********************************
                    * MULLIKEN POPULATION ANALYSIS *
                    ********************************

-----------------------
MULLIKEN ATOMIC CHARGES
-----------------------
   0 C :   -0.026852
   1 C :    0.063537
   2 N :   -0.330200
   3 C :    0.088139
   4 C :    0.198911
   5 C :    0.299856
   6 C :   -0.503265
   7 H :    0.019461
   8 H :    0.034062
   9 H :    0.026754
  10 H :   -0.001154
  11 H :    0.013472
  12 H :    0.025982
  13 H :    0.016099
  14 H :    0.011295
  15 H :    0.029498
  16 H :    0.038013
  17 H :   -0.003607
Sum of atomic charges:   -0.0000000

--------------------------------
MULLIKEN REDUCED ORBITAL CHARGES
--------------------------------
  0 C s       :     2.986904  s :     2.986904
      pz      :     1.002097  p :     3.014918
      px      :     1.018775
      py      :     0.994046
      dz2     :     0.008085  d :     0.025030
      dxz     :     0.002133
      dyz     :     0.004503
      dx2y2   :     0.005690
      dxy     :     0.004618
  1 C s       :     2.993823  s :     2.993823
      pz      :     1.024110  p :     2.894271
      px      :     1.002095
      py      :     0.868066
      dz2     :     0.011022  d :     0.048369
      dxz     :     0.002966
      dyz     :     0.013446
      dx2y2   :     0.013108
      dxy     :     0.007827
  2 N s       :     3.507170  s :     3.507170
      pz      :     1.575269  p :     3.794303
      px      :     1.100309
      py      :     1.118724
      dz2     :     0.004435  d :     0.028727
      dxz     :     0.004236
      dyz     :     0.005882
      dx2y2   :     0.008358
      dxy     :     0.005817
  3 C s       :     2.981090  s :     2.981090
      pz      :     0.961642  p :     2.891041
      px      :     0.989829
      py      :     0.939570
      dz2     :     0.014581  d :     0.039730
      dxz     :     0.004120
      dyz     :     0.006699
      dx2y2   :     0.009090
      dxy     :     0.005240
  4 C s       :     2.865073  s :     2.865073
      pz      :     0.999382  p :     2.885027
      px      :     0.852694
      py      :     1.032951
      dz2     :     0.008687  d :     0.050988
      dxz     :     0.016665
      dyz     :     0.006158
      dx2y2   :     0.011757
      dxy     :     0.007721
  5 C s       :     3.109023  s :     3.109023
      pz      :     0.708202  p :     2.561598
      px      :     0.896564
      py      :     0.956833
      dz2     :     0.009097  d :     0.029523
      dxz     :     0.007124
      dyz     :     0.008540
      dx2y2   :     0.002627
      dxy     :     0.002136
  6 C s       :     3.710950  s :     3.710950
      pz      :     0.799641  p :     2.773570
      px      :     0.963499
      py      :     1.010430
      dz2     :     0.006025  d :     0.018745
      dxz     :     0.005078
      dyz     :     0.004806
      dx2y2   :     0.001444
      dxy     :     0.001391
  7 H s       :     0.956720  s :     0.956720
      pz      :     0.005211  p :     0.023819
      px      :     0.007283
      py      :     0.011325
  8 H s       :     0.941947  s :     0.941947
      pz      :     0.005095  p :     0.023992
      px      :     0.013105
      py      :     0.005791
  9 H s       :     0.949850  s :     0.949850
      pz      :     0.011882  p :     0.023396
      px      :     0.005608
      py      :     0.005907
 10 H s       :     0.979625  s :     0.979625
      pz      :     0.011974  p :     0.021530
      px      :     0.005443
      py      :     0.004112
 11 H s       :     0.964899  s :     0.964899
      pz      :     0.005199  p :     0.021629
      px      :     0.013226
      py      :     0.003204
 12 H s       :     0.951289  s :     0.951289
      pz      :     0.004881  p :     0.022729
      px      :     0.013290
      py      :     0.004557
 13 H s       :     0.961449  s :     0.961449
      pz      :     0.005015  p :     0.022452
      px      :     0.005529
      py      :     0.011908
 14 H s       :     0.965927  s :     0.965927
      pz      :     0.012965  p :     0.022778
      px      :     0.005308
      py      :     0.004505
 15 H s       :     0.948372  s :     0.948372
      pz      :     0.005397  p :     0.022130
      px      :     0.003589
      py      :     0.013144
 16 H s       :     0.939446  s :     0.939446
      pz      :     0.009771  p :     0.022541
      px      :     0.004439
      py      :     0.008331
 17 H s       :     0.976495  s :     0.976495
      pz      :     0.012976  p :     0.027112
      px      :     0.007488
      py      :     0.006648


                     *******************************
                     * LOEWDIN POPULATION ANALYSIS *
                     *******************************

----------------------
LOEWDIN ATOMIC CHARGES
----------------------
   0 C :   -0.073692
   1 C :    0.012391
   2 N :   -0.102651
   3 C :    0.001166
   4 C :    0.008801
   5 C :   -0.040662
   6 C :   -0.088637
   7 H :    0.032969
   8 H :    0.026468
   9 H :    0.027405
  10 H :    0.002969
  11 H :    0.023067
  12 H :    0.023418
  13 H :    0.022062
  14 H :    0.005253
  15 H :    0.043421
  16 H :    0.041967
  17 H :    0.034283

-------------------------------
LOEWDIN REDUCED ORBITAL CHARGES
-------------------------------
  0 C s       :     2.838600  s :     2.838600
      pz      :     1.050783  p :     3.166456
      px      :     1.066825
      py      :     1.048847
      dz2     :     0.020943  d :     0.068636
      dxz     :     0.005424
      dyz     :     0.014173
      dx2y2   :     0.015717
      dxy     :     0.012379
  1 C s       :     2.835449  s :     2.835449
      pz      :     1.055663  p :     3.033273
      px      :     1.047264
      py      :     0.930347
      dz2     :     0.026941  d :     0.118886
      dxz     :     0.006616
      dyz     :     0.034866
      dx2y2   :     0.032938
      dxy     :     0.017525
  2 N s       :     3.132909  s :     3.132909
      pz      :     1.582945  p :     3.906985
      px      :     1.152828
      py      :     1.171212
      dz2     :     0.008411  d :     0.062757
      dxz     :     0.007676
      dyz     :     0.011647
      dx2y2   :     0.020945
      dxy     :     0.014078
  3 C s       :     2.836988  s :     2.836988
      pz      :     1.021495  p :     3.061307
      px      :     1.041094
      py      :     0.998719
      dz2     :     0.038347  d :     0.100538
      dxz     :     0.009591
      dyz     :     0.016740
      dx2y2   :     0.023253
      dxy     :     0.012607
  4 C s       :     2.818636  s :     2.818636
      pz      :     1.040439  p :     3.044600
      px      :     0.933077
      py      :     1.071084
      dz2     :     0.023256  d :     0.127963
      dxz     :     0.040548
      dyz     :     0.016456
      dx2y2   :     0.031771
      dxy     :     0.015933
  5 C s       :     2.923972  s :     2.923972
      pz      :     1.085581  p :     3.042955
      px      :     0.987256
      py      :     0.970118
      dz2     :     0.023269  d :     0.073734
      dxz     :     0.019943
      dyz     :     0.019502
      dx2y2   :     0.005911
      dxy     :     0.005110
  6 C s       :     2.949184  s :     2.949184
      pz      :     1.067771  p :     3.090537
      px      :     1.003982
      py      :     1.018785
      dz2     :     0.016400  d :     0.048916
      dxz     :     0.014001
      dyz     :     0.011828
      dx2y2   :     0.003318
      dxy     :     0.003369
  7 H s       :     0.900235  s :     0.900235
      pz      :     0.013821  p :     0.066796
      px      :     0.019182
      py      :     0.033794
  8 H s       :     0.905777  s :     0.905777
      pz      :     0.013476  p :     0.067755
      px      :     0.039178
      py      :     0.015101
  9 H s       :     0.905470  s :     0.905470
      pz      :     0.037027  p :     0.067125
      px      :     0.014045
      py      :     0.016052
 10 H s       :     0.929045  s :     0.929045
      pz      :     0.038389  p :     0.067986
      px      :     0.014323
      py      :     0.015274
 11 H s       :     0.911653  s :     0.911653
      pz      :     0.013601  p :     0.065280
      px      :     0.040932
      py      :     0.010747
 12 H s       :     0.911396  s :     0.911396
      pz      :     0.012605  p :     0.065186
      px      :     0.040661
      py      :     0.011920
 13 H s       :     0.912939  s :     0.912939
      pz      :     0.013355  p :     0.064999
      px      :     0.014801
      py      :     0.036843
 14 H s       :     0.927083  s :     0.927083
      pz      :     0.042010  p :     0.067664
      px      :     0.013449
      py      :     0.012204
 15 H s       :     0.891100  s :     0.891100
      pz      :     0.014001  p :     0.065479
      px      :     0.012053
      py      :     0.039424
 16 H s       :     0.891138  s :     0.891138
      pz      :     0.028398  p :     0.066896
      px      :     0.015206
      py      :     0.023292
 17 H s       :     0.886742  s :     0.886742
      pz      :     0.039468  p :     0.078976
      px      :     0.021163
      py      :     0.018345


                      *****************************
                      * MAYER POPULATION ANALYSIS *
                      *****************************

  NA   - Mulliken gross atomic population
  ZA   - Total nuclear charge
  QA   - Mulliken gross atomic charge
  VA   - Mayer's total valence
  BVA  - Mayer's bonded valence
  FA   - Mayer's free valence

  ATOM       NA         ZA         QA         VA         BVA        FA
  0 C      6.0269     6.0000    -0.0269     4.0125     4.0125     0.0000
  1 C      5.9365     6.0000     0.0635     4.0833     4.0833     0.0000
  2 N      7.3302     7.0000    -0.3302     3.2286     3.2286    -0.0000
  3 C      5.9119     6.0000     0.0881     3.9584     3.9584     0.0000
  4 C      5.8011     6.0000     0.1989     3.8713     3.8713    -0.0000
  5 C      5.7001     6.0000     0.2999     3.2684     3.2684    -0.0000
  6 C      6.5033     6.0000    -0.5033     3.5256     3.5256    -0.0000
  7 H      0.9805     1.0000     0.0195     0.9895     0.9895    -0.0000
  8 H      0.9659     1.0000     0.0341     0.9906     0.9906    -0.0000
  9 H      0.9732     1.0000     0.0268     0.9981     0.9981     0.0000
 10 H      1.0012     1.0000    -0.0012     0.9956     0.9956     0.0000
 11 H      0.9865     1.0000     0.0135     0.9827     0.9827     0.0000
 12 H      0.9740     1.0000     0.0260     0.9928     0.9928    -0.0000
 13 H      0.9839     1.0000     0.0161     0.9906     0.9906     0.0000
 14 H      0.9887     1.0000     0.0113     0.9995     0.9995     0.0000
 15 H      0.9705     1.0000     0.0295     0.9897     0.9897    -0.0000
 16 H      0.9620     1.0000     0.0380     0.9971     0.9971     0.0000
 17 H      1.0036     1.0000    -0.0036     0.9956     0.9956    -0.0000

  Mayer bond orders larger than 0.1
B(  0-C ,  1-C ) :   1.1173 B(  0-C ,  7-H ) :   0.9517 B(  0-C ,  8-H ) :   0.9603 
B(  0-C ,  9-H ) :   0.9598 B(  1-C ,  2-N ) :   1.0235 B(  1-C , 10-H ) :   0.9188 
B(  1-C , 11-H ) :   0.9406 B(  2-N ,  3-C ) :   1.0291 B(  2-N ,  4-C ) :   1.0675 
B(  3-C , 12-H ) :   0.9673 B(  3-C , 13-H ) :   0.9626 B(  3-C , 14-H ) :   0.9429 
B(  4-C ,  5-C ) :   0.9912 B(  4-C , 15-H ) :   0.9051 B(  4-C , 16-H ) :   0.9071 
B(  5-C ,  6-C ) :   2.3431 B(  5-C , 17-H ) :  -0.1161 B(  6-C , 17-H ) :   1.1061 



 *********************************** NBO 6.0 ***********************************
             N A T U R A L   A T O M I C   O R B I T A L   A N D
          N A T U R A L   B O N D   O R B I T A L   A N A L Y S I S
 ***************************** Kiya KiyaLu (100703) ****************************
  (c) Copyright 1996-2015 Board of Regents of the University of Wisconsin System
      on behalf of the Theoretical Chemistry Institute.  All rights reserved.

          Cite this program as:

          NBO 6.0.  E. D. Glendening, J. K. Badenhoop, A. E. Reed,
          J. E. Carpenter, J. A. Bohmann, C. M. Morales, C. R. Landis,
          and F. Weinhold (Theoretical Chemistry Institute, University
          of Wisconsin, Madison, WI, 2013); http://nbo6.chem.wisc.edu/

       /NPA    / : Natural Population Analysis
       /NBO    / : Natural Bond Orbital Analysis
       /AONBO  / : Write the AO to NBO transformation to lfn77
       /FILE   / : Set to 2485

 Filename set to 2485

 Job title:  *** NBO job generated by orca_scf

 Warning: MOs are non-orthogonal; program will continue

 Warning: -4423.62439 electrons reside outside the linearly independent MO space


 NATURAL POPULATIONS:  Natural atomic orbital occupancies

  NAO Atom No lang   Type(AO)    Occupancy      Energy
 -------------------------------------------------------
   1    C  1  s      Cor( 1s)     1.99922      -9.76857
   2    C  1  s      Val( 2s)     1.08925      -0.21307
   3    C  1  s      Ryd( 3s)     0.00041       0.83549
   4    C  1  px     Val( 2p)     1.21963      -0.06276
   5    C  1  px     Ryd( 3p)     0.00138       0.56963
   6    C  1  py     Val( 2p)     1.17864      -0.06458
   7    C  1  py     Ryd( 3p)     0.00228       0.58952
   8    C  1  pz     Val( 2p)     1.16824      -0.06323
   9    C  1  pz     Ryd( 3p)     0.00107       0.52405
  10    C  1  dxy    Ryd( 3d)     0.00042       2.22520
  11    C  1  dxz    Ryd( 3d)     0.00020       2.07266
  12    C  1  dyz    Ryd( 3d)     0.00042       2.20199
  13    C  1  dx2y2  Ryd( 3d)     0.00051       2.27315
  14    C  1  dz2    Ryd( 3d)     0.00070       2.33276

  15    C  2  s      Cor( 1s)     1.99914      -9.79529
  16    C  2  s      Val( 2s)     0.99013      -0.18394
  17    C  2  s      Ryd( 3s)     0.00218       0.87275
  18    C  2  px     Val( 2p)     1.17639      -0.06783
  19    C  2  px     Ryd( 3p)     0.00358       0.71111
  20    C  2  py     Val( 2p)     0.89308      -0.05166
  21    C  2  py     Ryd( 3p)     0.00217       0.56376
  22    C  2  pz     Val( 2p)     1.16153      -0.06625
  23    C  2  pz     Ryd( 3p)     0.00240       0.63083
  24    C  2  dxy    Ryd( 3d)     0.00072       2.08637
  25    C  2  dxz    Ryd( 3d)     0.00031       2.06237
  26    C  2  dyz    Ryd( 3d)     0.00127       2.19042
  27    C  2  dx2y2  Ryd( 3d)     0.00114       2.36188
  28    C  2  dz2    Ryd( 3d)     0.00097       2.31349

  29    N  3  s      Cor( 1s)     1.99928     -13.83096
  30    N  3  s      Val( 2s)     1.24810      -0.44701
  31    N  3  s      Ryd( 3s)     0.00117       1.10721
  32    N  3  px     Val( 2p)     1.27038      -0.18657
  33    N  3  px     Ryd( 3p)     0.00157       1.08103
  34    N  3  py     Val( 2p)     1.29406      -0.18718
  35    N  3  py     Ryd( 3p)     0.00141       1.10717
  36    N  3  pz     Val( 2p)     1.69873      -0.18267
  37    N  3  pz     Ryd( 3p)     0.00486       0.99127
  38    N  3  dxy    Ryd( 3d)     0.00055       2.43944
  39    N  3  dxz    Ryd( 3d)     0.00090       2.33558
  40    N  3  dyz    Ryd( 3d)     0.00113       2.44071
  41    N  3  dx2y2  Ryd( 3d)     0.00103       2.63832
  42    N  3  dz2    Ryd( 3d)     0.00124       2.40642

  43    C  4  s      Cor( 1s)     1.99925      -9.79674
  44    C  4  s      Val( 2s)     1.06649      -0.20565
  45    C  4  s      Ryd( 3s)     0.00126       0.84743
  46    C  4  px     Val( 2p)     1.16707      -0.07011
  47    C  4  px     Ryd( 3p)     0.00274       0.62838
  48    C  4  py     Val( 2p)     1.08402      -0.06530
  49    C  4  py     Ryd( 3p)     0.00249       0.59924
  50    C  4  pz     Val( 2p)     1.10692      -0.05852
  51    C  4  pz     Ryd( 3p)     0.00192       0.50147
  52    C  4  dxy    Ryd( 3d)     0.00056       2.10926
  53    C  4  dxz    Ryd( 3d)     0.00043       2.11183
  54    C  4  dyz    Ryd( 3d)     0.00072       2.15154
  55    C  4  dx2y2  Ryd( 3d)     0.00080       2.37771
  56    C  4  dz2    Ryd( 3d)     0.00129       2.35478

  57    C  5  s      Cor( 1s)     1.99903      -9.81628
  58    C  5  s      Val( 2s)     0.98588      -0.18004
  59    C  5  s      Ryd( 3s)     0.00128       0.95171
  60    C  5  px     Val( 2p)     0.91583      -0.06412
  61    C  5  px     Ryd( 3p)     0.00257       0.53194
  62    C  5  py     Val( 2p)     1.24539      -0.09109
  63    C  5  py     Ryd( 3p)     0.00468       0.80178
  64    C  5  pz     Val( 2p)     1.14066      -0.07978
  65    C  5  pz     Ryd( 3p)     0.00298       0.55571
  66    C  5  dxy    Ryd( 3d)     0.00074       2.11306
  67    C  5  dxz    Ryd( 3d)     0.00163       2.14053
  68    C  5  dyz    Ryd( 3d)     0.00059       2.20713
  69    C  5  dx2y2  Ryd( 3d)     0.00111       2.30268
  70    C  5  dz2    Ryd( 3d)     0.00079       2.18544

  71    C  6  s      Cor( 1s)     1.99869      -9.75501
  72    C  6  s      Val( 2s)     0.89804      -0.07502
  73    C  6  s      Ryd( 3s)     0.00451       0.59962
  74    C  6  px     Val( 2p)     1.03486      -0.06088
  75    C  6  px     Ryd( 3p)     0.00243       0.68715
  76    C  6  py     Val( 2p)     1.00733      -0.07206
  77    C  6  py     Ryd( 3p)     0.00122       0.61857
  78    C  6  pz     Val( 2p)     1.11101      -0.01076
  79    C  6  pz     Ryd( 3p)     0.00200       0.84071
  80    C  6  dxy    Ryd( 3d)     0.00018       1.81996
  81    C  6  dxz    Ryd( 3d)     0.00072       2.32359
  82    C  6  dyz    Ryd( 3d)     0.00084       2.13869
  83    C  6  dx2y2  Ryd( 3d)     0.00025       1.79552
  84    C  6  dz2    Ryd( 3d)     0.00096       2.39395

  85    C  7  s      Cor( 1s)     1.99836      -9.75349
  86    C  7  s      Val( 2s)     0.99394      -0.11387
  87    C  7  s      Ryd( 3s)     0.00150       0.53074
  88    C  7  px     Val( 2p)     1.02922      -0.06387
  89    C  7  px     Ryd( 3p)     0.00082       0.58848
  90    C  7  py     Val( 2p)     1.03249      -0.07658
  91    C  7  py     Ryd( 3p)     0.00034       0.52843
  92    C  7  pz     Val( 2p)     1.16966       0.00134
  93    C  7  pz     Ryd( 3p)     0.00067       0.80446
  94    C  7  dxy    Ryd( 3d)     0.00017       1.80321
  95    C  7  dxz    Ryd( 3d)     0.00075       2.37174
  96    C  7  dyz    Ryd( 3d)     0.00059       2.12717
  97    C  7  dx2y2  Ryd( 3d)     0.00016       1.78162
  98    C  7  dz2    Ryd( 3d)     0.00088       2.43163

  99    H  8  s      Val( 1s)     0.76517       0.07196
 100    H  8  s      Ryd( 2s)     0.00136       0.33221
 101    H  8  px     Ryd( 2p)     0.00030       1.85828
 102    H  8  py     Ryd( 2p)     0.00064       2.17850
 103    H  8  pz     Ryd( 2p)     0.00015       1.70849

 104    H  9  s      Val( 1s)     0.77855       0.07020
 105    H  9  s      Ryd( 2s)     0.00146       0.38094
 106    H  9  px     Ryd( 2p)     0.00081       2.28316
 107    H  9  py     Ryd( 2p)     0.00020       1.74783
 108    H  9  pz     Ryd( 2p)     0.00013       1.68623

 109    H 10  s      Val( 1s)     0.77278       0.07357
 110    H 10  s      Ryd( 2s)     0.00339       0.34127
 111    H 10  px     Ryd( 2p)     0.00015       1.73783
 112    H 10  py     Ryd( 2p)     0.00021       1.78037
 113    H 10  pz     Ryd( 2p)     0.00072       2.21225

 114    H 11  s      Val( 1s)     0.79761       0.06776
 115    H 11  s      Ryd( 2s)     0.00585       0.38572
 116    H 11  px     Ryd( 2p)     0.00017       1.81034
 117    H 11  py     Ryd( 2p)     0.00016       1.81003
 118    H 11  pz     Ryd( 2p)     0.00081       2.19183

 119    H 12  s      Val( 1s)     0.77462       0.07456
 120    H 12  s      Ryd( 2s)     0.00231       0.34736
 121    H 12  px     Ryd( 2p)     0.00096       2.28001
 122    H 12  py     Ryd( 2p)     0.00008       1.70241
 123    H 12  pz     Ryd( 2p)     0.00013       1.74997

 124    H 13  s      Val( 1s)     0.77970       0.06653
 125    H 13  s      Ryd( 2s)     0.00130       0.34068
 126    H 13  px     Ryd( 2p)     0.00087       2.29638
 127    H 13  py     Ryd( 2p)     0.00013       1.69089
 128    H 13  pz     Ryd( 2p)     0.00013       1.69717

 129    H 14  s      Val( 1s)     0.78130       0.06473
 130    H 14  s      Ryd( 2s)     0.00137       0.33714
 131    H 14  px     Ryd( 2p)     0.00018       1.77214
 132    H 14  py     Ryd( 2p)     0.00076       2.22424
 133    H 14  pz     Ryd( 2p)     0.00015       1.71586

 134    H 15  s      Val( 1s)     0.80245       0.05992
 135    H 15  s      Ryd( 2s)     0.00481       0.37333
 136    H 15  px     Ryd( 2p)     0.00017       1.76672
 137    H 15  py     Ryd( 2p)     0.00015       1.71919
 138    H 15  pz     Ryd( 2p)     0.00081       2.25628

 139    H 16  s      Val( 1s)     0.74528       0.06498
 140    H 16  s      Ryd( 2s)     0.00224       0.33176
 141    H 16  px     Ryd( 2p)     0.00011       1.74627
 142    H 16  py     Ryd( 2p)     0.00083       2.22637
 143    H 16  pz     Ryd( 2p)     0.00019       1.77252

 144    H 17  s      Val( 1s)     0.74574       0.06906
 145    H 17  s      Ryd( 2s)     0.00208       0.36819
 146    H 17  px     Ryd( 2p)     0.00017       1.81391
 147    H 17  py     Ryd( 2p)     0.00039       1.95231
 148    H 17  pz     Ryd( 2p)     0.00054       2.02665

 149    H 18  s      Val( 1s)     0.76391       0.06474
 150    H 18  s      Ryd( 2s)     0.00041       0.26389
 151    H 18  px     Ryd( 2p)     0.00041       1.78810
 152    H 18  py     Ryd( 2p)     0.00034       1.68898
 153    H 18  pz     Ryd( 2p)     0.00085       2.24219

   1 low occupancy (<1.9990e) core orbital  found on  C  6
   1 low occupancy (<1.9990e) core orbital  found on  C  7


 Summary of Natural Population Analysis:

                                     Natural Population
             Natural    ---------------------------------------------
  Atom No    Charge        Core      Valence    Rydberg      Total
 --------------------------------------------------------------------
    C  1   -0.66238      1.99922     4.65576    0.00739     6.66238
    C  2   -0.23501      1.99914     4.22113    0.01474     6.23501
    N  3   -0.52439      1.99928     5.51127    0.01384     7.52439
    C  4   -0.43597      1.99925     4.42450    0.01222     6.43597
    C  5   -0.30317      1.99903     4.28776    0.01638     6.30317
    C  6   -0.06304      1.99869     4.05124    0.01310     6.06304
    C  7   -0.22954      1.99836     4.22532    0.00587     6.22954
    H  8    0.23238      0.00000     0.76517    0.00245     0.76762
    H  9    0.21885      0.00000     0.77855    0.00260     0.78115
    H 10    0.22275      0.00000     0.77278    0.00447     0.77725
    H 11    0.19540      0.00000     0.79761    0.00699     0.80460
    H 12    0.22191      0.00000     0.77462    0.00348     0.77809
    H 13    0.21788      0.00000     0.77970    0.00242     0.78212
    H 14    0.21624      0.00000     0.78130    0.00246     0.78376
    H 15    0.19161      0.00000     0.80245    0.00594     0.80839
    H 16    0.25135      0.00000     0.74528    0.00337     0.74865
    H 17    0.25106      0.00000     0.74574    0.00319     0.74894
    H 18    0.23408      0.00000     0.76391    0.00201     0.76592
 ====================================================================
 * Total *  0.00000     13.99298    39.88410    0.12292    54.00000

                                 Natural Population
 ---------------------------------------------------------
   Core                      13.99298 ( 99.9498% of   14)
   Valence                   39.88410 ( 99.7103% of   40)
   Natural Minimal Basis     53.87708 ( 99.7724% of   54)
   Natural Rydberg Basis      0.12292 (  0.2276% of   54)
 ---------------------------------------------------------

    Atom No         Natural Electron Configuration
 ----------------------------------------------------------------------------
      C  1      [core]2s( 1.09)2p( 3.57)
      C  2      [core]2s( 0.99)2p( 3.23)3p( 0.01)
      N  3      [core]2s( 1.25)2p( 4.26)3p( 0.01)
      C  4      [core]2s( 1.07)2p( 3.36)3p( 0.01)
      C  5      [core]2s( 0.99)2p( 3.30)3p( 0.01)
      C  6      [core]2s( 0.90)2p( 3.15)3p( 0.01)
      C  7      [core]2s( 0.99)2p( 3.23)
      H  8            1s( 0.77)
      H  9            1s( 0.78)
      H 10            1s( 0.77)
      H 11            1s( 0.80)2s( 0.01)
      H 12            1s( 0.77)
      H 13            1s( 0.78)
      H 14            1s( 0.78)
      H 15            1s( 0.80)
      H 16            1s( 0.75)
      H 17            1s( 0.75)
      H 18            1s( 0.76)


 NATURAL BOND ORBITAL ANALYSIS:

                            Occupancies       Lewis Structure    Low   High
         Max    Occ     -------------------  -----------------   occ   occ
  Cycle  Ctr   Thresh    Lewis   non-Lewis     CR  BD  nC  LP    (L)   (NL)
 ============================================================================
    1     2     1.90    53.42286   0.57714      7  19   0   1     1      1
    2     2     1.89    53.42286   0.57714      7  19   0   1     1      1
    3     2     1.85    53.51411   0.48589      7  19   0   1     0      0
 ----------------------------------------------------------------------------

 Structure accepted: No low occupancy Lewis orbitals

 -------------------------------------------------------
   Core                     13.99298 ( 99.950% of  14)
   Valence Lewis            39.52114 ( 98.803% of  40)
  ==================      =============================
   Total Lewis              53.51411 ( 99.100% of  54)
  -----------------------------------------------------
   Valence non-Lewis         0.40123 (  0.743% of  54)
   Rydberg non-Lewis         0.08466 (  0.157% of  54)
  ==================      =============================
   Total non-Lewis           0.48589 (  0.900% of  54)
 -------------------------------------------------------


     (Occupancy)   Bond orbital / Coefficients / Hybrids
 ------------------ Lewis ------------------------------------------------------
   1. (1.99922) CR ( 1) C  1            s(100.00%)
                                         1.0000  0.0000  0.0000  0.0000  0.0000
                                         0.0000  0.0000  0.0000  0.0000  0.0000
                                         0.0000  0.0000  0.0000  0.0000
   2. (1.99914) CR ( 1) C  2            s(100.00%)
                                         1.0000  0.0000  0.0000  0.0000  0.0000
                                         0.0000  0.0000  0.0000  0.0000  0.0000
                                         0.0000  0.0000  0.0000  0.0000
   3. (1.99928) CR ( 1) N  3            s(100.00%)
                                         1.0000  0.0000  0.0000  0.0000  0.0000
                                         0.0000  0.0000  0.0000  0.0000  0.0000
                                         0.0000  0.0000  0.0000  0.0000
   4. (1.99925) CR ( 1) C  4            s(100.00%)
                                         1.0000  0.0000  0.0000  0.0000  0.0000
                                         0.0000  0.0000  0.0000  0.0000  0.0000
                                         0.0000  0.0000  0.0000  0.0000
   5. (1.99903) CR ( 1) C  5            s(100.00%)
                                         1.0000  0.0000  0.0000  0.0000  0.0000
                                         0.0000  0.0000  0.0000  0.0000  0.0000
                                         0.0000  0.0000  0.0000  0.0000
   6. (1.99869) CR ( 1) C  6            s(100.00%)
                                         1.0000  0.0000  0.0000  0.0000  0.0000
                                         0.0000  0.0000  0.0000  0.0000  0.0000
                                         0.0000  0.0000  0.0000  0.0000
   7. (1.99836) CR ( 1) C  7            s(100.00%)
                                         1.0000  0.0000  0.0000  0.0000  0.0000
                                         0.0000  0.0000  0.0000  0.0000  0.0000
                                         0.0000  0.0000  0.0000  0.0000
   8. (1.85931) LP ( 1) N  3            s( 13.21%)p 6.57( 86.74%)d 0.00(  0.05%)
                                         0.0000  0.3635  0.0010 -0.2444 -0.0048
                                         0.2320  0.0014 -0.8680 -0.0210  0.0026
                                        -0.0100  0.0077 -0.0005 -0.0172
   9. (1.98821) BD ( 1) C  1- C  2
               ( 49.73%)   0.7052* C  1 s( 30.03%)p 2.33( 69.93%)d 0.00(  0.04%)
                                         0.0000  0.5480  0.0058 -0.2537 -0.0087
                                         0.5555 -0.0049  0.5712  0.0079 -0.0060
                                        -0.0067  0.0151 -0.0058  0.0038
               ( 50.27%)   0.7090* C  2 s( 29.28%)p 2.41( 70.68%)d 0.00(  0.04%)
                                         0.0000  0.5409  0.0155  0.2808 -0.0142
                                        -0.5401 -0.0091 -0.5796  0.0016 -0.0068
                                        -0.0088  0.0150 -0.0036  0.0046
  10. (1.98279) BD ( 1) C  1- H  8
               ( 61.54%)   0.7845* C  1 s( 23.08%)p 3.33( 76.88%)d 0.00(  0.04%)
                                         0.0000  0.4804  0.0035 -0.4114  0.0091
                                        -0.7673 -0.0005  0.1031 -0.0098  0.0139
                                        -0.0031 -0.0050 -0.0085 -0.0089
               ( 38.46%)   0.6202* H  8 s( 99.91%)p 0.00(  0.09%)
                                         0.9995 -0.0003  0.0140  0.0271 -0.0027
  11. (1.98689) BD ( 1) C  1- H  9
               ( 61.08%)   0.7815* C  1 s( 23.47%)p 3.26( 76.50%)d 0.00(  0.04%)
                                         0.0000  0.4844 -0.0043  0.8594 -0.0034
                                        -0.1492 -0.0160  0.0622 -0.0089 -0.0049
                                         0.0036 -0.0002  0.0151 -0.0094
               ( 38.92%)   0.6238* H  9 s( 99.90%)p 0.00(  0.10%)
                                         0.9995 -0.0016 -0.0307  0.0074 -0.0017
  12. (1.98719) BD ( 1) C  1- H 10
               ( 61.40%)   0.7836* C  1 s( 23.39%)p 3.27( 76.57%)d 0.00(  0.03%)
                                         0.0000  0.4837 -0.0035 -0.1651  0.0023
                                         0.2822 -0.0132 -0.8116 -0.0047 -0.0022
                                         0.0062 -0.0101 -0.0017  0.0140
               ( 38.60%)   0.6213* H 10 s( 99.90%)p 0.00(  0.10%)
                                         0.9995 -0.0036  0.0058 -0.0101  0.0296
  13. (1.98071) BD ( 1) C  2- N  3
               ( 38.33%)   0.6191* C  2 s( 24.12%)p 3.14( 75.76%)d 0.00(  0.12%)
                                         0.0000  0.4911  0.0093  0.3118 -0.0078
                                         0.8003  0.0253 -0.1369 -0.0198  0.0189
                                        -0.0042 -0.0090 -0.0217 -0.0164
               ( 61.67%)   0.7853* N  3 s( 29.86%)p 2.35( 70.08%)d 0.00(  0.06%)
                                         0.0000  0.5465 -0.0002 -0.2774  0.0119
                                        -0.7836  0.0064  0.0974  0.0103  0.0050
                                        -0.0079 -0.0143 -0.0142 -0.0106
  14. (1.98434) BD ( 1) C  2- H 11
               ( 60.95%)   0.7807* C  2 s( 23.91%)p 3.18( 76.05%)d 0.00(  0.04%)
                                         0.0000  0.4887 -0.0160  0.2303 -0.0175
                                        -0.2518 -0.0084  0.8023 -0.0040 -0.0033
                                         0.0078 -0.0096 -0.0002  0.0148
               ( 39.05%)   0.6249* H 11 s( 99.89%)p 0.00(  0.11%)
                                         0.9994 -0.0124 -0.0078  0.0107 -0.0310
  15. (1.97541) BD ( 1) C  2- H 12
               ( 61.29%)   0.7829* C  2 s( 22.71%)p 3.40( 77.25%)d 0.00(  0.04%)
                                         0.0000  0.4766 -0.0010 -0.8772  0.0133
                                         0.0461 -0.0075 -0.0236  0.0054 -0.0035
                                         0.0020  0.0008  0.0169 -0.0094
               ( 38.71%)   0.6222* H 12 s( 99.88%)p 0.00(  0.12%)
                                         0.9994 -0.0037  0.0341  0.0005  0.0012
  16. (1.98352) BD ( 1) N  3- C  4
               ( 61.57%)   0.7847* N  3 s( 28.82%)p 2.47( 71.11%)d 0.00(  0.07%)
                                         0.0000  0.5369  0.0010 -0.3853  0.0137
                                         0.5711 -0.0171  0.4858  0.0079 -0.0020
                                        -0.0131  0.0201 -0.0027  0.0083
               ( 38.43%)   0.6199* C  4 s( 25.56%)p 2.91( 74.32%)d 0.00(  0.12%)
                                         0.0000  0.5055  0.0074  0.3874  0.0007
                                        -0.5666 -0.0049 -0.5203 -0.0380 -0.0171
                                        -0.0168  0.0243 -0.0066  0.0015
  17. (1.97365) BD ( 1) N  3- C  5
               ( 59.99%)   0.7745* N  3 s( 28.04%)p 2.56( 71.90%)d 0.00(  0.06%)
                                         0.0000  0.5295  0.0017  0.8447 -0.0118
                                         0.0702 -0.0084  0.0024  0.0186 -0.0003
                                         0.0119  0.0035  0.0172 -0.0140
               ( 40.01%)   0.6325* C  5 s( 25.20%)p 2.96( 74.70%)d 0.00(  0.10%)
                                         0.0000  0.5020  0.0030 -0.8584 -0.0255
                                        -0.0894  0.0116  0.0136 -0.0339  0.0063
                                        -0.0035 -0.0012  0.0267 -0.0148
  18. (1.98829) BD ( 1) C  4- H 13
               ( 61.06%)   0.7814* C  4 s( 24.44%)p 3.09( 75.52%)d 0.00(  0.04%)
                                         0.0000  0.4943  0.0041 -0.8604  0.0080
                                        -0.0446  0.0150 -0.1126  0.0028  0.0032
                                         0.0058 -0.0002  0.0159 -0.0097
               ( 38.94%)   0.6240* H 13 s( 99.90%)p 0.00(  0.10%)
                                         0.9995 -0.0018  0.0321 -0.0005  0.0035
  19. (1.98946) BD ( 1) C  4- H 14
               ( 60.98%)   0.7809* C  4 s( 24.42%)p 3.09( 75.54%)d 0.00(  0.04%)
                                         0.0000  0.4941  0.0049  0.2677 -0.0163
                                         0.8031 -0.0026 -0.1960  0.0052  0.0105
                                        -0.0027 -0.0086 -0.0117 -0.0086
               ( 39.02%)   0.6246* H 14 s( 99.90%)p 0.00(  0.10%)
                                         0.9995 -0.0018 -0.0070 -0.0304  0.0059
  20. (1.99566) BD ( 1) C  4- H 15
               ( 60.70%)   0.7791* C  4 s( 25.56%)p 2.91( 74.40%)d 0.00(  0.04%)
                                         0.0000  0.5054 -0.0114  0.1918 -0.0125
                                        -0.1742  0.0182  0.8224  0.0048 -0.0008
                                         0.0071 -0.0065  0.0003  0.0169
               ( 39.30%)   0.6269* H 15 s( 99.89%)p 0.00(  0.11%)
                                         0.9994 -0.0105 -0.0064  0.0048 -0.0314
  21. (1.98732) BD ( 1) C  5- C  6
               ( 49.62%)   0.7044* C  5 s( 28.46%)p 2.51( 71.48%)d 0.00(  0.06%)
                                         0.0000  0.5335  0.0000  0.3446  0.0253
                                        -0.2105  0.0035  0.7424  0.0028 -0.0043
                                         0.0152 -0.0087  0.0022  0.0154
               ( 50.38%)   0.7098* C  6 s( 47.80%)p 1.09( 52.16%)d 0.00(  0.03%)
                                         0.0000  0.6911 -0.0216 -0.3133  0.0177
                                         0.1784 -0.0003 -0.6254  0.0111 -0.0035
                                         0.0130 -0.0065  0.0029  0.0109
  22. (1.96231) BD ( 1) C  5- H 16
               ( 62.66%)   0.7916* C  5 s( 22.97%)p 3.35( 77.00%)d 0.00(  0.03%)
                                         0.0000  0.4792  0.0017  0.1903  0.0027
                                         0.8336 -0.0174 -0.1961 -0.0134  0.0080
                                        -0.0012 -0.0029 -0.0144 -0.0080
               ( 37.34%)   0.6111* H 16 s( 99.89%)p 0.00(  0.11%)
                                         0.9994 -0.0049 -0.0081 -0.0311  0.0095
  23. (1.96221) BD ( 1) C  5- H 17
               ( 62.66%)   0.7916* C  5 s( 23.30%)p 3.29( 76.66%)d 0.00(  0.04%)
                                         0.0000  0.4827 -0.0011  0.3245  0.0002
                                        -0.5015  0.0251 -0.6396 -0.0009 -0.0091
                                        -0.0094  0.0129 -0.0043  0.0025
               ( 37.34%)   0.6110* H 17 s( 99.89%)p 0.00(  0.11%)
                                         0.9995 -0.0041 -0.0123  0.0166  0.0250
  24. (1.98614) BD ( 1) C  6- C  7
               ( 50.94%)   0.7137* C  6 s( 52.11%)p 0.92( 47.82%)d 0.00(  0.07%)
                                         0.0000  0.7213  0.0282  0.2917  0.0135
                                        -0.1668 -0.0064  0.6038  0.0218 -0.0047
                                         0.0167 -0.0100  0.0028  0.0172
               ( 49.06%)   0.7004* C  7 s( 53.20%)p 0.88( 46.72%)d 0.00(  0.08%)
                                         0.0000  0.7293  0.0124 -0.2783  0.0027
                                         0.1833 -0.0016 -0.5968  0.0017 -0.0051
                                         0.0175 -0.0111  0.0026  0.0184
  25. (1.98254) BD ( 2) C  6- C  7
               ( 49.37%)   0.7026* C  6 s(  0.00%)p 1.00( 99.93%)d 0.00(  0.06%)
                                         0.0000  0.0051 -0.0017  0.1642 -0.0037
                                        -0.9253  0.0048 -0.3407 -0.0056 -0.0093
                                         0.0004 -0.0185 -0.0048 -0.0134
               ( 50.63%)   0.7116* C  7 s(  0.01%)p 1.00( 99.93%)d 0.00(  0.06%)
                                         0.0000  0.0066  0.0050  0.1597 -0.0033
                                        -0.9227  0.0071 -0.3497 -0.0028  0.0108
                                         0.0004  0.0181  0.0042  0.0135
  26. (1.97451) BD ( 3) C  6- C  7
               ( 50.67%)   0.7118* C  6 s(  0.01%)p 1.00( 99.94%)d 0.00(  0.05%)
                                         0.0000 -0.0060 -0.0075 -0.8881  0.0106
                                        -0.2889 -0.0002  0.3564  0.0054  0.0027
                                        -0.0149 -0.0081 -0.0102  0.0121
               ( 49.33%)   0.7023* C  7 s(  0.01%)p99.99( 99.92%)d 4.56(  0.07%)
                                         0.0000  0.0090 -0.0081 -0.8955  0.0083
                                        -0.2843 -0.0004  0.3411  0.0042 -0.0028
                                         0.0166  0.0087  0.0114 -0.0135
  27. (1.99067) BD ( 1) C  7- H 18
               ( 61.81%)   0.7862* C  7 s( 46.67%)p 1.14( 53.29%)d 0.00(  0.04%)
                                         0.0000  0.6831 -0.0098  0.3075  0.0087
                                        -0.1831 -0.0054  0.6359  0.0166 -0.0037
                                         0.0132 -0.0078  0.0022  0.0136
               ( 38.19%)   0.6180* H 18 s( 99.89%)p 0.00(  0.11%)
                                         0.9994 -0.0004 -0.0141  0.0083 -0.0289
 ---------------- non-Lewis ----------------------------------------------------
  28. (0.01160) BD*( 1) C  1- C  2
               ( 50.27%)   0.7090* C  1 s( 30.03%)p 2.33( 69.93%)d 0.00(  0.04%)
                                         0.0000  0.5480  0.0058 -0.2537 -0.0087
                                         0.5555 -0.0049  0.5712  0.0079 -0.0060
                                        -0.0067  0.0151 -0.0058  0.0038
               ( 49.73%)  -0.7052* C  2 s( 29.28%)p 2.41( 70.68%)d 0.00(  0.04%)
                                         0.0000  0.5409  0.0155  0.2808 -0.0142
                                        -0.5401 -0.0091 -0.5796  0.0016 -0.0068
                                        -0.0088  0.0150 -0.0036  0.0046
  29. (0.00535) BD*( 1) C  1- H  8
               ( 38.46%)   0.6202* C  1 s( 23.08%)p 3.33( 76.88%)d 0.00(  0.04%)
                                         0.0000 -0.4804 -0.0035  0.4114 -0.0091
                                         0.7673  0.0005 -0.1031  0.0098 -0.0139
                                         0.0031  0.0050  0.0085  0.0089
               ( 61.54%)  -0.7845* H  8 s( 99.91%)p 0.00(  0.09%)
                                        -0.9995  0.0003 -0.0140 -0.0271  0.0027
  30. (0.00992) BD*( 1) C  1- H  9
               ( 38.92%)   0.6238* C  1 s( 23.47%)p 3.26( 76.50%)d 0.00(  0.04%)
                                         0.0000 -0.4844  0.0043 -0.8594  0.0034
                                         0.1492  0.0160 -0.0622  0.0089  0.0049
                                        -0.0036  0.0002 -0.0151  0.0094
               ( 61.08%)  -0.7815* H  9 s( 99.90%)p 0.00(  0.10%)
                                        -0.9995  0.0016  0.0307 -0.0074  0.0017
  31. (0.01057) BD*( 1) C  1- H 10
               ( 38.60%)   0.6213* C  1 s( 23.39%)p 3.27( 76.57%)d 0.00(  0.03%)
                                         0.0000 -0.4837  0.0035  0.1651 -0.0023
                                        -0.2822  0.0132  0.8116  0.0047  0.0022
                                        -0.0062  0.0101  0.0017 -0.0140
               ( 61.40%)  -0.7836* H 10 s( 99.90%)p 0.00(  0.10%)
                                        -0.9995  0.0036 -0.0058  0.0101 -0.0296
  32. (0.03000) BD*( 1) C  2- N  3
               ( 61.67%)   0.7853* C  2 s( 24.12%)p 3.14( 75.76%)d 0.00(  0.12%)
                                         0.0000  0.4911  0.0093  0.3118 -0.0078
                                         0.8003  0.0253 -0.1369 -0.0198  0.0189
                                        -0.0042 -0.0090 -0.0217 -0.0164
               ( 38.33%)  -0.6191* N  3 s( 29.86%)p 2.35( 70.08%)d 0.00(  0.06%)
                                         0.0000  0.5465 -0.0002 -0.2774  0.0119
                                        -0.7836  0.0064  0.0974  0.0103  0.0050
                                        -0.0079 -0.0143 -0.0142 -0.0106
  33. (0.03864) BD*( 1) C  2- H 11
               ( 39.05%)   0.6249* C  2 s( 23.91%)p 3.18( 76.05%)d 0.00(  0.04%)
                                         0.0000 -0.4887  0.0160 -0.2303  0.0175
                                         0.2518  0.0084 -0.8023  0.0040  0.0033
                                        -0.0078  0.0096  0.0002 -0.0148
               ( 60.95%)  -0.7807* H 11 s( 99.89%)p 0.00(  0.11%)
                                        -0.9994  0.0124  0.0078 -0.0107  0.0310
  34. (0.01768) BD*( 1) C  2- H 12
               ( 38.71%)   0.6222* C  2 s( 22.71%)p 3.40( 77.25%)d 0.00(  0.04%)
                                         0.0000 -0.4766  0.0010  0.8772 -0.0133
                                        -0.0461  0.0075  0.0236 -0.0054  0.0035
                                        -0.0020 -0.0008 -0.0169  0.0094
               ( 61.29%)  -0.7829* H 12 s( 99.88%)p 0.00(  0.12%)
                                        -0.9994  0.0037 -0.0341 -0.0005 -0.0012
  35. (0.01342) BD*( 1) N  3- C  4
               ( 38.43%)   0.6199* N  3 s( 28.82%)p 2.47( 71.11%)d 0.00(  0.07%)
                                         0.0000 -0.5369 -0.0010  0.3853 -0.0137
                                        -0.5711  0.0171 -0.4858 -0.0079  0.0020
                                         0.0131 -0.0201  0.0027 -0.0083
               ( 61.57%)  -0.7847* C  4 s( 25.56%)p 2.91( 74.32%)d 0.00(  0.12%)
                                         0.0000 -0.5055 -0.0074 -0.3874 -0.0007
                                         0.5666  0.0049  0.5203  0.0380  0.0171
                                         0.0168 -0.0243  0.0066 -0.0015
  36. (0.03495) BD*( 1) N  3- C  5
               ( 40.01%)   0.6325* N  3 s( 28.04%)p 2.56( 71.90%)d 0.00(  0.06%)
                                         0.0000 -0.5295 -0.0017 -0.8447  0.0118
                                        -0.0702  0.0084 -0.0024 -0.0186  0.0003
                                        -0.0119 -0.0035 -0.0172  0.0140
               ( 59.99%)  -0.7745* C  5 s( 25.20%)p 2.96( 74.70%)d 0.00(  0.10%)
                                         0.0000 -0.5020 -0.0030  0.8584  0.0255
                                         0.0894 -0.0116 -0.0136  0.0339 -0.0063
                                         0.0035  0.0012 -0.0267  0.0148
  37. (0.01018) BD*( 1) C  4- H 13
               ( 38.94%)   0.6240* C  4 s( 24.44%)p 3.09( 75.52%)d 0.00(  0.04%)
                                         0.0000 -0.4943 -0.0041  0.8604 -0.0080
                                         0.0446 -0.0150  0.1126 -0.0028 -0.0032
                                        -0.0058  0.0002 -0.0159  0.0097
               ( 61.06%)  -0.7814* H 13 s( 99.90%)p 0.00(  0.10%)
                                        -0.9995  0.0018 -0.0321  0.0005 -0.0035
  38. (0.00960) BD*( 1) C  4- H 14
               ( 39.02%)   0.6246* C  4 s( 24.42%)p 3.09( 75.54%)d 0.00(  0.04%)
                                         0.0000 -0.4941 -0.0049 -0.2677  0.0163
                                        -0.8031  0.0026  0.1960 -0.0052 -0.0105
                                         0.0027  0.0086  0.0117  0.0086
               ( 60.98%)  -0.7809* H 14 s( 99.90%)p 0.00(  0.10%)
                                        -0.9995  0.0018  0.0070  0.0304 -0.0059
  39. (0.03119) BD*( 1) C  4- H 15
               ( 39.30%)   0.6269* C  4 s( 25.56%)p 2.91( 74.40%)d 0.00(  0.04%)
                                         0.0000 -0.5054  0.0114 -0.1918  0.0125
                                         0.1742 -0.0182 -0.8224 -0.0048  0.0008
                                        -0.0071  0.0065 -0.0003 -0.0169
               ( 60.70%)  -0.7791* H 15 s( 99.89%)p 0.00(  0.11%)
                                        -0.9994  0.0105  0.0064 -0.0048  0.0314
  40. (0.04043) BD*( 1) C  5- C  6
               ( 50.38%)   0.7098* C  5 s( 28.46%)p 2.51( 71.48%)d 0.00(  0.06%)
                                         0.0000 -0.5335  0.0000 -0.3446 -0.0253
                                         0.2105 -0.0035 -0.7424 -0.0028  0.0043
                                        -0.0152  0.0087 -0.0022 -0.0154
               ( 49.62%)  -0.7044* C  6 s( 47.80%)p 1.09( 52.16%)d 0.00(  0.03%)
                                         0.0000 -0.6911  0.0216  0.3133 -0.0177
                                        -0.1784  0.0003  0.6254 -0.0111  0.0035
                                        -0.0130  0.0065 -0.0029 -0.0109
  41. (0.02138) BD*( 1) C  5- H 16
               ( 37.34%)   0.6111* C  5 s( 22.97%)p 3.35( 77.00%)d 0.00(  0.03%)
                                         0.0000 -0.4792 -0.0017 -0.1903 -0.0027
                                        -0.8336  0.0174  0.1961  0.0134 -0.0080
                                         0.0012  0.0029  0.0144  0.0080
               ( 62.66%)  -0.7916* H 16 s( 99.89%)p 0.00(  0.11%)
                                        -0.9994  0.0049  0.0081  0.0311 -0.0095
  42. (0.02219) BD*( 1) C  5- H 17
               ( 37.34%)   0.6110* C  5 s( 23.30%)p 3.29( 76.66%)d 0.00(  0.04%)
                                         0.0000 -0.4827  0.0011 -0.3245 -0.0002
                                         0.5015 -0.0251  0.6396  0.0009  0.0091
                                         0.0094 -0.0129  0.0043 -0.0025
               ( 62.66%)  -0.7916* H 17 s( 99.89%)p 0.00(  0.11%)
                                        -0.9995  0.0041  0.0123 -0.0166 -0.0250
  43. (0.01868) BD*( 1) C  6- C  7
               ( 49.06%)   0.7004* C  6 s( 52.11%)p 0.92( 47.82%)d 0.00(  0.07%)
                                         0.0000 -0.7213 -0.0282 -0.2917 -0.0135
                                         0.1668  0.0064 -0.6038 -0.0218  0.0047
                                        -0.0167  0.0100 -0.0028 -0.0172
               ( 50.94%)  -0.7137* C  7 s( 53.20%)p 0.88( 46.72%)d 0.00(  0.08%)
                                         0.0000 -0.7293 -0.0124  0.2783 -0.0027
                                        -0.1833  0.0016  0.5968 -0.0017  0.0051
                                        -0.0175  0.0111 -0.0026 -0.0184
  44. (0.03872) BD*( 2) C  6- C  7
               ( 50.63%)   0.7116* C  6 s(  0.00%)p 1.00( 99.93%)d 0.00(  0.06%)
                                         0.0000 -0.0051  0.0017 -0.1642  0.0037
                                         0.9253 -0.0048  0.3407  0.0056  0.0093
                                        -0.0004  0.0185  0.0048  0.0134
               ( 49.37%)  -0.7026* C  7 s(  0.01%)p 1.00( 99.93%)d 0.00(  0.06%)
                                         0.0000 -0.0066 -0.0050 -0.1597  0.0033
                                         0.9227 -0.0071  0.3497  0.0028 -0.0108
                                        -0.0004 -0.0181 -0.0042 -0.0135
  45. (0.02930) BD*( 3) C  6- C  7
               ( 49.33%)   0.7023* C  6 s(  0.01%)p 1.00( 99.94%)d 0.00(  0.05%)
                                         0.0000  0.0060  0.0075  0.8881 -0.0106
                                         0.2889  0.0002 -0.3564 -0.0054 -0.0027
                                         0.0149  0.0081  0.0102 -0.0121
               ( 50.67%)  -0.7118* C  7 s(  0.01%)p99.99( 99.92%)d 4.56(  0.07%)
                                         0.0000 -0.0090  0.0081  0.8955 -0.0083
                                         0.2843  0.0004 -0.3411 -0.0042  0.0028
                                        -0.0166 -0.0087 -0.0114  0.0135
  46. (0.00740) BD*( 1) C  7- H 18
               ( 38.19%)   0.6180* C  7 s( 46.67%)p 1.14( 53.29%)d 0.00(  0.04%)
                                         0.0000 -0.6831  0.0098 -0.3075 -0.0087
                                         0.1831  0.0054 -0.6359 -0.0166  0.0037
                                        -0.0132  0.0078 -0.0022 -0.0136
               ( 61.81%)  -0.7862* H 18 s( 99.89%)p 0.00(  0.11%)
                                        -0.9994  0.0004  0.0141 -0.0083  0.0289
  47. (0.00241) RY ( 1) C  1            s(  6.41%)p13.67( 87.62%)d 0.93(  5.97%)
                                         0.0000  0.0122  0.2529  0.0110  0.2833
                                         0.0128  0.8415 -0.0058 -0.2957  0.0407
                                         0.0572  0.0198 -0.1291 -0.1942
  48. (0.00154) RY ( 2) C  1            s(  0.00%)p 1.00( 78.22%)d 0.28( 21.77%)
                                         0.0000 -0.0022  0.0066 -0.0112 -0.7724
                                        -0.0013  0.0820 -0.0063 -0.4229 -0.2460
                                        -0.1697 -0.0598  0.1437 -0.3228
  49. (0.00051) RY ( 3) C  1            s( 19.44%)p 4.08( 79.40%)d 0.06(  1.16%)
                                         0.0000  0.0094  0.4408  0.0074 -0.3937
                                        -0.0133  0.2917 -0.0112  0.7440  0.0008
                                        -0.0370 -0.0151  0.0422  0.0908
  50. (0.00015) RY ( 4) C  1            s( 50.34%)p 0.36( 17.97%)d 0.63( 31.69%)
                                         0.0000 -0.0064  0.7095 -0.0031  0.1862
                                        -0.0001 -0.2324  0.0027 -0.3018 -0.0693
                                        -0.2542 -0.0543  0.4057  0.2827
  51. (0.00006) RY ( 5) C  1            s(  9.08%)p 1.36( 12.40%)d 8.64( 78.52%)
  52. (0.00002) RY ( 6) C  1            s(  0.00%)p 1.00(  3.93%)d24.45( 96.07%)
  53. (0.00001) RY ( 7) C  1            s(  8.70%)p 1.23( 10.66%)d 9.27( 80.64%)
  54. (0.00000) RY ( 8) C  1            s(  0.00%)p 1.00(  7.00%)d13.28( 92.99%)
  55. (0.00000) RY ( 9) C  1            s(  6.04%)p 0.48(  2.91%)d15.06( 91.05%)
  56. (0.00390) RY ( 1) C  2            s(  4.18%)p20.60( 86.13%)d 2.32(  9.69%)
                                         0.0000  0.0135  0.2040  0.0298  0.8073
                                         0.0066 -0.2589  0.0115  0.3761  0.0585
                                        -0.0443  0.0987  0.2181 -0.1849
  57. (0.00339) RY ( 2) C  2            s( 31.30%)p 1.70( 53.08%)d 0.50( 15.61%)
                                         0.0000 -0.0023  0.5595 -0.0080 -0.2615
                                        -0.0020  0.4320  0.0204  0.5247 -0.0720
                                         0.0737  0.3366 -0.1493 -0.0995
  58. (0.00123) RY ( 3) C  2            s( 23.46%)p 2.44( 57.22%)d 0.82( 19.32%)
                                         0.0000 -0.0043  0.4843 -0.0072  0.2267
                                        -0.0189  0.2413  0.0134 -0.6797  0.3101
                                         0.1084  0.2441  0.1012  0.1244
  59. (0.00095) RY ( 4) C  2            s(  0.44%)p99.99( 54.39%)d99.99( 45.17%)
                                         0.0000 -0.0064  0.0661 -0.0034 -0.2835
                                         0.0109 -0.6796  0.0054 -0.0396  0.2975
                                         0.2172  0.4451 -0.2147 -0.2679
  60. (0.00062) RY ( 5) C  2            s( 24.85%)p 0.26(  6.49%)d 2.76( 68.66%)
                                         0.0000 -0.0056  0.4985 -0.0104  0.0360
                                        -0.0131 -0.2249  0.0051 -0.1127 -0.1481
                                        -0.0237 -0.6297 -0.4903 -0.1650
  61. (0.00032) RY ( 6) C  2            s( 11.61%)p 1.82( 21.17%)d 5.79( 67.21%)
                                         0.0000  0.0005  0.3408  0.0030 -0.1807
                                         0.0359 -0.4098 -0.0041  0.0993 -0.2236
                                        -0.0775 -0.0065  0.3386  0.7081
  62. (0.00023) RY ( 7) C  2            s(  0.49%)p20.85( 10.29%)d99.99( 89.22%)
                                         0.0000 -0.0022  0.0702  0.0071 -0.0264
                                         0.0104 -0.0790  0.0112 -0.3092 -0.7478
                                        -0.2692  0.3015  0.1564 -0.3810
  63. (0.00003) RY ( 8) C  2            s(  2.97%)p 3.15(  9.35%)d29.53( 87.69%)
  64. (0.00002) RY ( 9) C  2            s(  0.66%)p 3.23(  2.14%)d99.99( 97.20%)
  65. (0.00496) RY ( 1) N  3            s( 18.93%)p 4.09( 77.37%)d 0.20(  3.70%)
                                         0.0000 -0.0172  0.4347 -0.0085  0.2612
                                         0.0031 -0.1375 -0.0206  0.8283  0.0239
                                        -0.0573  0.0907  0.0058 -0.1578
  66. (0.00104) RY ( 2) N  3            s(  0.30%)p99.99( 78.57%)d70.21( 21.13%)
                                         0.0000  0.0081  0.0543 -0.0018 -0.2398
                                         0.0056  0.8314  0.0018  0.1922 -0.2269
                                         0.1082  0.3077 -0.1894  0.1324
  67. (0.00078) RY ( 3) N  3            s(  5.59%)p15.63( 87.28%)d 1.28(  7.13%)
                                         0.0000  0.0005  0.2363  0.0199  0.8234
                                         0.0044  0.2529  0.0020 -0.3612  0.0901
                                         0.1496  0.1036 -0.1484 -0.0898
  68. (0.00051) RY ( 4) N  3            s(  0.37%)p17.17(  6.29%)d99.99( 93.34%)
                                         0.0000  0.0008  0.0605 -0.0021 -0.2404
                                         0.0077 -0.0646  0.0027  0.0296  0.7016
                                         0.4094  0.0377 -0.5183 -0.0594
  69. (0.00046) RY ( 5) N  3            s(  0.31%)p26.44(  8.12%)d99.99( 91.57%)
                                         0.0000  0.0020  0.0554 -0.0090 -0.0100
                                        -0.0038  0.2843  0.0031  0.0113  0.6142
                                        -0.1136  0.0705  0.7062  0.1484
  70. (0.00036) RY ( 6) N  3            s( 40.64%)p 0.41( 16.63%)d 1.05( 42.73%)
                                         0.0000  0.0040  0.6375 -0.0197 -0.3086
                                        -0.0036 -0.0537  0.0141 -0.2598 -0.2179
                                         0.4502 -0.0555  0.2995 -0.2905
  71. (0.00016) RY ( 7) N  3            s(  0.39%)p37.82( 14.64%)d99.99( 84.97%)
                                         0.0000 -0.0010  0.0622  0.0023 -0.0010
                                        -0.0302 -0.3706 -0.0105 -0.0896 -0.0709
                                         0.1204  0.8009  0.0562  0.4308
  72. (0.00011) RY ( 8) N  3            s( 33.52%)p 0.18(  5.98%)d 1.81( 60.50%)
                                         0.0000  0.0048  0.5789  0.0194 -0.1415
                                         0.0003  0.0004 -0.0002 -0.1984  0.0803
                                        -0.5614 -0.1816 -0.2742  0.4186
  73. (0.00003) RY ( 9) N  3            s(  0.03%)p99.99(  5.29%)d99.99( 94.68%)
  74. (0.00320) RY ( 1) C  4            s(  0.01%)p 1.00( 87.11%)d 0.15( 12.89%)
                                         0.0000  0.0025  0.0080 -0.0184 -0.6900
                                        -0.0167 -0.6175  0.0031  0.1144  0.0652
                                         0.1350  0.0525 -0.3087 -0.0914
  75. (0.00279) RY ( 2) C  4            s( 27.92%)p 1.88( 52.61%)d 0.70( 19.47%)
                                         0.0000  0.0135  0.5282  0.0101  0.4989
                                        -0.0073 -0.4615  0.0183  0.2523 -0.1208
                                         0.0363 -0.1239  0.0041 -0.4043
  76. (0.00079) RY ( 3) C  4            s( 31.59%)p 0.46( 14.68%)d 1.70( 53.73%)
                                         0.0000 -0.0037  0.5620 -0.0116  0.0562
                                         0.0130 -0.1698  0.0122 -0.3382  0.3218
                                        -0.0710  0.2279 -0.0026  0.6138
  77. (0.00069) RY ( 4) C  4            s(  0.38%)p99.99( 82.07%)d46.05( 17.55%)
                                         0.0000  0.0094  0.0610  0.0131 -0.0219
[...]
  5 C                -0.1       0.0      -0.1      -0.1      -0.0       1.6
 10 H                 0.0      -0.0      -0.0       0.1      -0.2       0.0
 11 H                 0.9       0.1      -0.0      -0.2       0.0      -0.0
 12 H                 0.5      -0.2      -0.0      -0.0       0.1       0.0
 13 H                -0.1      -0.0      -0.1       0.0       0.1       0.1
 14 H                 0.0      -0.0      -0.0       0.2      -0.1      -0.0
 15 H                 0.4       0.0       0.1       0.3       0.1      -0.0
 16 H                 0.3       0.0      -0.1      -0.1      -0.0      -0.2

                     72        73        74        75        76        77   
                   0.00000   0.00000   0.00000   0.00000   0.00000   0.00000
                   0.00003   0.00320   0.00279   0.00079   0.00069   0.00010
                  --------  --------  --------  --------  --------  --------
  0 C                -0.1      -0.2      -0.8      -0.4       0.0       0.0
  1 C                -1.3      -7.8      -8.1      -4.4      -0.8       0.2
  2 N               102.9       0.5      -9.7     -17.2     -10.8      -3.1
  3 C                -0.9     137.3     147.1     141.5     132.7     142.7
  4 C                -0.2      -5.2     -11.0      -3.8      -0.7       0.2
  5 C                -0.2      -0.2      -0.5       0.1       0.0      -0.0
  6 C                -0.0       0.1       0.4       0.1       0.0      -0.1
 10 H                 0.0      -0.1       0.2      -0.1       0.0      -0.1
 11 H                -0.0       0.2      -0.0       0.3      -0.2      -0.0
 12 H                 0.0     -10.0      -0.6      -7.0      -1.1     -18.4
 13 H                -0.0     -13.1      -1.2      -5.3      -0.7     -17.5
 14 H                 0.0      -1.8     -15.7      -4.0     -18.2      -4.0
 15 H                -0.1       0.4       0.2       0.2      -0.2      -0.0
 16 H                -0.1      -0.1      -0.3      -0.1       0.0      -0.0

                     78        79        80        81        82        83   
                   0.00000   0.00000   0.00000   0.00000   0.00000   0.00000
                   0.00004   0.00001   0.00001   0.00000   0.00431   0.00266
                  --------  --------  --------  --------  --------  --------
  0 C                -0.1      -0.0      -0.0       0.0      -2.5      -0.3
  1 C                -0.5      -0.1      -0.0      -0.3      -2.9      -0.9
  2 N                -2.9      -1.2      -0.5      -0.7      -3.8     -12.3
  3 C               111.3     109.1     117.3     118.7      -5.0      -2.0
  4 C                -0.3      -0.0      -0.5       0.1     149.7     146.0
  5 C                 0.1      -0.0       0.1      -0.1     -10.7     -21.2
  6 C                 0.0       0.0       0.0      -0.0      -0.6      -2.9
 11 H                -0.1      -0.0      -0.1       0.1      -0.1       0.0
 12 H                -4.0      -0.8      -7.9      -7.4      -0.1      -0.0
 13 H                -3.0      -1.5      -6.7      -8.1       0.2      -0.3
 14 H                -0.4      -5.5      -1.7      -2.3       0.1       0.0
 15 H                -0.1      -0.0       0.0      -0.1     -14.2      -2.0
 16 H                -0.1       0.0      -0.0      -0.0     -10.1      -4.1

                     84        85        86        87        88        89   
                   0.00000   0.00000   0.00000   0.00000   0.00000   0.00000
                   0.00220   0.00153   0.00049   0.00026   0.00008   0.00003
                  --------  --------  --------  --------  --------  --------
  0 C                -0.3      -0.8       0.0      -0.1       0.0       0.4
  1 C                -5.6      -4.4      -0.1      -0.0       0.2      -0.2
  2 N                -8.1     -27.9      -0.8      -4.5      -1.3      -3.0
  3 C                -7.1      -5.5      -0.0      -0.2       0.6      -0.2
  4 C               258.0     183.5     107.1     115.1     151.7     118.0
  5 C              -110.0     -19.6      -1.4      -8.5     -16.8      -0.4
  6 C               -25.6      -1.1       0.0      -0.9      -2.0       0.1
  8 H                -0.3       0.2      -0.0      -0.0      -0.0      -0.1
  9 H                -0.2       0.1      -0.0      -0.0      -0.0      -0.0
 10 H                 0.5       0.1      -0.0      -0.0      -0.0       0.0
 11 H                -0.2      -0.1      -0.0      -0.0       0.0      -0.0
 12 H                -0.2      -0.1      -0.0      -0.0      -0.0      -0.0
 13 H                 0.0       0.3      -0.0      -0.0      -0.1      -0.1
 14 H                 0.4       0.1      -0.0      -0.0      -0.0       0.0
 15 H                -0.5     -12.2      -2.9      -0.3     -13.1      -9.3
 16 H                -0.9     -12.4      -1.8      -0.5     -19.2      -5.1

                     90        91        92        93        94        95   
                   0.00000   0.00000   0.00000   0.00000   0.00000   0.00000
                   0.00001   0.00345   0.00218   0.00183   0.00109   0.00016
                  --------  --------  --------  --------  --------  --------
  0 C                -0.0      -0.2       0.0       0.1       0.1      -0.0
  1 C                 0.0      -1.2      -1.1      -1.4       0.2      -0.0
  2 N                -1.1      -0.3       1.5      -0.0       0.1       0.1
  3 C                -0.2      -0.9      -0.5      -0.3       0.3       0.1
  4 C               122.8     -10.3     -43.7      -9.6    -110.3      -6.3
  5 C                -5.7     490.5     189.4     122.9     242.4     114.1
  6 C                -0.9    -366.4     -44.4     -10.3     -35.5      -7.1
  8 H                -0.1      -0.2      -0.0      -0.4      -0.0       0.0
 10 H                -0.0      -0.4      -0.7      -0.3       0.1      -0.5
 14 H                 0.0      -0.5      -0.9      -0.0       0.1      -0.2
 15 H                -7.3      -1.0       0.4      -0.4       1.1       0.0
 16 H                -7.5      -1.0       0.1      -0.4       0.8      -0.2
 17 H                -0.0      -8.2       0.1       0.2       0.6      -0.2

                     96        97        98        99       100       101   
                   0.00000   0.00000   0.00000   0.00000   0.00000   0.00000
                   0.00006   0.00004   0.00000   0.00000   0.00168   0.00029
                  --------  --------  --------  --------  --------  --------
  1 C                 0.1       0.1      -0.1      -0.1       0.6       0.0
  2 N                -0.3      -0.1      -0.1      -0.0       0.0      -0.0
  3 C                 0.6       0.0      -0.1       0.0       0.6       0.1
  4 C                -9.3      -4.3      -0.9      -0.5     -33.5      -4.5
  5 C               116.2     109.3     102.4     101.3    -352.5     -53.7
  6 C                -7.4      -5.0      -1.2      -0.7     485.5     160.5
 10 H                -0.1       0.0      -0.0      -0.0      -1.3       0.0
 14 H                -0.3       0.0      -0.1      -0.0      -0.8       0.0
 15 H                 0.4      -0.0       0.1      -0.0       0.7       0.1
 16 H                 0.5      -0.0       0.0       0.0       0.7       0.1
 17 H                -0.2      -0.0      -0.0      -0.0      -0.1      -2.6

                    102       103       104       105       106       107   
                   0.00000   0.00000   0.00000   0.00000   0.00000   0.00000
                   0.00023   0.00010   0.00000   0.00000   0.00000   0.00000
                  --------  --------  --------  --------  --------  --------
  4 C                -0.9       1.0      -0.4      -0.0      -0.1      -0.1
  5 C               -15.4      -6.6     -13.9      -0.9      -4.7      -2.9
  6 C               117.4     148.4     134.0     101.4     107.7     105.4
 17 H                -0.9     -42.8     -19.7      -0.5      -2.9      -2.4

                    108       109       110       111       112       113   
                   0.00000   0.00000   0.00000   0.00000   0.00000   0.00000
                   0.00000   0.00140   0.00017   0.00013   0.00002   0.00148
                  --------  --------  --------  --------  --------  --------
  0 C                -0.0     -34.4      -2.9      -3.3      -8.1     -35.8
  1 C                -0.0       0.5      -0.2      -0.1      -0.2       0.2
  2 N                -0.0      -0.1      -0.0      -0.1      -0.1      -0.0
  4 C                -0.1      -0.1      -0.0      -0.0      -0.0      -0.1
  5 C                -5.8      -0.0      -0.0      -0.0      -0.0      -0.7
  6 C               109.3      -0.0      -0.0      -0.0      -0.0       0.1
  7 H                -0.0     135.4     103.9     104.3     108.7      -0.1
  8 H                -0.0      -0.1      -0.4      -0.4      -0.1     141.1
  9 H                -0.0      -0.3      -0.3      -0.4      -0.1      -0.3
 10 H                -0.0      -0.3      -0.0      -0.0      -0.0      -0.3
 11 H                -0.0      -0.5      -0.1      -0.1      -0.0       0.0
 16 H                -0.0      -0.0      -0.0      -0.0      -0.0      -4.1
 17 H                -3.4      -0.0      -0.0      -0.0      -0.0       0.0

                    114       115       116       117       118       119   
                   0.00000   0.00000   0.00000   0.00000   0.00000   0.00000
                   0.00018   0.00012   0.00003   0.00342   0.00013   0.00012
                  --------  --------  --------  --------  --------  --------
  0 C                -2.9      -3.3      -8.0     -33.6      -3.0      -3.1
  1 C                -0.1      -0.0      -0.1       0.0      -0.2      -0.1
  2 N                -0.1      -0.1      -0.1      -0.2      -0.1      -0.0
  7 H                -0.3      -0.3      -0.1      -0.3      -0.3      -0.4
  8 H               104.0     104.3     108.5      -0.2      -0.3      -0.4
  9 H                -0.3      -0.4      -0.1     135.0     104.1     104.2
 11 H                -0.1      -0.0      -0.0      -0.3      -0.0      -0.1
 16 H                -0.0      -0.0      -0.1      -0.5      -0.0      -0.0

                    120       121       122       123       124       125   
                   0.00000   0.00000   0.00000   0.00000   0.00000   0.00000
                   0.00003   0.00599   0.00012   0.00008   0.00002   0.00233
                  --------  --------  --------  --------  --------  --------
  0 C                -8.1      -0.2       0.0      -0.6      -0.1       0.5
  1 C                -0.1     -32.0      -4.0      -3.2      -6.7     -36.1
  2 N                -0.0      -0.2      -0.0      -0.1      -0.2       0.8
  3 C                -0.0      -0.1      -0.1      -0.1      -0.0       0.1
  4 C                -0.0       0.7      -0.0      -0.0      -0.2      -0.4
  5 C                -0.0      -1.6      -0.1      -0.0       0.0       0.0
  6 C                -0.0      -1.2       0.0       0.0      -0.0      -0.0
  7 H                -0.1      -0.3      -0.0      -0.0      -0.0      -0.5
  8 H                -0.1      -0.3      -0.1      -0.0      -0.0      -0.0
  9 H               108.5      -0.1      -0.0      -0.0      -0.0      -0.3
 10 H                -0.0     136.5     105.1     104.9     107.4      -0.4
 11 H                -0.0      -0.3      -0.6      -0.6      -0.0     139.8
 12 H                -0.0      -0.0      -0.0      -0.0      -0.0      -3.5
 14 H                -0.0      -0.8      -0.0      -0.1      -0.0      -0.0

                    126       127       128       129       130       131   
                   0.00000   0.00000   0.00000   0.00000   0.00000   0.00000
                   0.00013   0.00008   0.00002   0.00131   0.00017   0.00010
                  --------  --------  --------  --------  --------  --------
  0 C                -0.0      -0.3      -0.0      -0.1      -0.0       0.0
  1 C                -3.6      -4.1      -6.7       0.3      -0.1      -0.0
  2 N                -0.2      -0.1      -0.4       0.5      -0.1      -0.0
  3 C                -0.1      -0.1      -0.1     -37.5      -3.0      -4.4
  4 C                -0.0      -0.0       0.0      -0.3      -0.0      -0.0
 10 H                -0.6      -0.5      -0.1      -0.0      -0.0      -0.0
 11 H               104.6     105.3     107.4      -3.5      -0.0      -0.0
 12 H                 0.0      -0.0      -0.0     141.6     104.1     105.2
 13 H                -0.0      -0.0      -0.0      -0.5      -0.3      -0.3
 14 H                -0.0      -0.0      -0.0      -0.5      -0.4      -0.4

                    132       133       134       135       136       137   
                   0.00000   0.00000   0.00000   0.00000   0.00000   0.00000
                   0.00002   0.00139   0.00017   0.00009   0.00002   0.00493
                  --------  --------  --------  --------  --------  --------
  1 C                -0.0      -0.4      -0.0      -0.0      -0.0      -0.2
  2 N                -0.3       0.5      -0.1      -0.0      -0.3      -0.2
  3 C                -6.5     -37.2      -2.9      -4.5      -6.3     -34.0
  4 C                -0.0      -0.1      -0.0      -0.0      -0.0       0.7
  5 C                -0.0       0.0      -0.1      -0.0      -0.0      -1.6
  6 C                -0.0      -0.0      -0.0      -0.0      -0.0      -0.8
 10 H                 0.0      -0.0      -0.0      -0.0      -0.0      -0.9
 12 H               107.2      -0.4      -0.3      -0.4      -0.1      -0.4
 13 H                -0.1     141.2     103.9     105.5     107.1      -0.5
 14 H                -0.1      -0.6      -0.4      -0.4      -0.1     137.8
 15 H                -0.0      -3.0      -0.0      -0.0      -0.1      -0.0

                    138       139       140       141       142       143   
                   0.00000   0.00000   0.00000   0.00000   0.00000   0.00000
                   0.00014   0.00011   0.00002   0.00228   0.00015   0.00008
                  --------  --------  --------  --------  --------  --------
  1 C                -0.1       0.1      -0.0      -0.4      -0.0      -0.0
  2 N                -0.1       0.0      -0.2       0.7      -0.2      -0.1
  3 C                -2.9      -4.4      -6.6       0.3       0.0      -0.0
  4 C                -0.1       0.1      -0.2     -39.7      -4.5      -4.0
  5 C                -0.1      -0.1      -0.0      -0.1       0.2      -0.2
  6 C                -0.0       0.0      -0.0       0.7      -0.0      -0.0
 12 H                -0.5      -0.4      -0.1      -0.0      -0.0       0.0
 13 H                -0.3      -0.5      -0.1      -3.0      -0.0      -0.1
 14 H               104.2     105.3     107.3      -0.0      -0.0      -0.0
 15 H                -0.0      -0.0      -0.0     141.7     105.3     105.0
 16 H                -0.0      -0.0      -0.0      -0.2      -0.7      -0.5

                    144       145       146       147       148       149   
                   0.00000   0.00000   0.00000   0.00000   0.00000   0.00000
                   0.00002   0.00211   0.00018   0.00009   0.00002   0.00048
                  --------  --------  --------  --------  --------  --------
  0 C                -0.0      -2.4      -0.1      -0.0       0.0       0.0
  1 C                 0.0       0.7      -0.0      -0.0      -0.2       0.0
  2 N                -0.4       0.2      -0.2      -0.2      -0.3       0.0
  3 C                -0.1      -0.4      -0.0      -0.1      -0.0       0.0
  4 C                -6.4     -40.3      -4.3      -4.0      -6.3      -0.0
  5 C                -0.2      -1.0       0.1      -0.1      -0.1      -6.7
  6 C                -0.1       0.7      -0.0      -0.0      -0.1     -42.5
  8 H                -0.0      -4.0      -0.0      -0.1      -0.0       0.0
  9 H                -0.0      -0.5       0.0      -0.0      -0.0      -0.0
 15 H               107.2      -0.2      -0.6      -0.5       0.0       0.0
 16 H                 0.0     147.2     105.2     105.0     107.0      -0.0
 17 H                -0.0       0.0      -0.0      -0.0      -0.0     149.2

                    150       151       152   
                   0.00000   0.00000   0.00000
                   0.00030   0.00025   0.00008
                  --------  --------  --------
  4 C                -0.1      -0.0       0.1
  5 C                -0.1      -0.8       0.2
  6 C                -3.7      -8.9     -13.3
 17 H               104.0     109.9     113.0

Storing NBOs: 2485.nbo
                                    *** NBOs were stored ***

                                *** returned from GENNBO program ***

-------
TIMINGS
-------

Total SCF time: 0 days 0 hours 0 min 6 sec 

Total time                  ....       6.828 sec
Sum of individual times     ....       7.380 sec  (108.1%)

Fock matrix formation       ....       4.537 sec  ( 66.4%)
  Coulomb formation         ....       2.425 sec  ( 53.5% of F)
  Split-RI-J                ....       2.417 sec  ( 53.3% of F)
  XC integration            ....       2.105 sec  ( 46.4% of F)
    Basis function eval.    ....       0.723 sec  ( 34.4% of XC)
    Density eval.           ....       0.394 sec  ( 18.7% of XC)
    XC-Functional eval.     ....       0.118 sec  (  5.6% of XC)
    XC-Potential eval.      ....       0.827 sec  ( 39.3% of XC)
Diagonalization             ....       0.031 sec  (  0.5%)
Density matrix formation    ....       0.004 sec  (  0.1%)
Population analysis         ....       1.571 sec  ( 23.0%)
Initial guess               ....       0.424 sec  (  6.2%)
Orbital Transformation      ....       0.000 sec  (  0.0%)
Orbital Orthonormalization  ....       0.000 sec  (  0.0%)
DIIS solution               ....       0.008 sec  (  0.1%)
SOSCF solution              ....       0.018 sec  (  0.3%)
Grid generation             ....       0.788 sec  ( 11.5%)
           ************************************************************
           *              Shut down parallel processing               *
           ************************************************************

-------------------------   --------------------
FINAL SINGLE POINT ENERGY      -289.314875318004
-------------------------   --------------------


                            ***************************************
                            *     ORCA property calculations      *
                            ***************************************

                                    ---------------------
                                    Active property flags
                                    ---------------------
   (+) Dipole Moment


------------------------------------------------------------------------------
                       ORCA ELECTRIC PROPERTIES CALCULATION
------------------------------------------------------------------------------

Dipole Moment Calculation                       ... on
Quadrupole Moment Calculation                   ... off
Polarizability Calculation                      ... off
GBWName                                         ... 2485.gbw
Electron density file                           ... 2485.scfp.tmp

-------------
DIPOLE MOMENT
-------------
                                X             Y             Z
Electronic contribution:      4.03019       1.74864       1.89444
Nuclear contribution   :     -4.12731      -1.79017      -1.85428
                        -----------------------------------------
Total Dipole Moment    :     -0.09712      -0.04153       0.04016
                        -----------------------------------------
Magnitude (a.u.)       :      0.11300
Magnitude (Debye)      :      0.28724


Timings for individual modules:

Sum of individual times         ...        8.058 sec (=   0.134 min)
GTO integral calculation        ...        0.477 sec (=   0.008 min)   5.9 %
SCF iterations                  ...        7.580 sec (=   0.126 min)  94.1 %
                             ****ORCA TERMINATED NORMALLY****
TOTAL RUN TIME: 0 days 0 hours 0 minutes 8 seconds 452 msec
