
                                 *****************
                                 * O   R   C   A *
                                 *****************

           --- An Ab Initio, DFT and Semiempirical electronic structure package ---

                  #######################################################
                  #                        -***-                        #
                  #  Department of molecular theory and spectroscopy    #
                  #              Directorship: Frank Neese              #
                  # Max Planck Institute for Chemical Energy Conversion #
                  #                  D-45470 Muelheim/Ruhr              #
                  #                       Germany                       #
                  #                                                     #
                  #                  All rights reserved                #
                  #                        -***-                        #
                  #######################################################


                         Program Version 3.0.3 - RELEASE   -


 With contributions from (in alphabetic order):
   Ute Becker             : Parallelization
   Dmytro Bykov           : SCF Hessian
   Dmitry Ganyushin       : Spin-Orbit,Spin-Spin,Magnetic field MRCI
   Andreas Hansen         : Spin unrestricted coupled pair/coupled cluster methods
   Dimitrios Liakos       : Extrapolation schemes; parallel MDCI
   Robert Izsak           : Overlap fitted RIJCOSX, COSX-SCS-MP3
   Christian Kollmar      : KDIIS, OOCD, Brueckner-CCSD(T), CCSD density
   Simone Kossmann        : Meta GGA functionals, TD-DFT gradient, OOMP2, MP2 Hessian
   Taras Petrenko         : DFT Hessian,TD-DFT gradient, ASA and ECA modules, normal mode analysis, Resonance Raman, ABS, FL, XAS/XES, NRVS
   Christoph Reimann      : Effective Core Potentials
   Michael Roemelt        : Restricted open shell CIS
   Christoph Riplinger    : Improved optimizer, TS searches, QM/MM, DLPNO-CCSD
   Barbara Sandhoefer     : DKH picture change effects
   Igor Schapiro          : Molecular dynamics
   Kantharuban Sivalingam : CASSCF convergence, NEVPT2
   Boris Wezisla          : Elementary symmetry handling
   Frank Wennmohs         : Technical directorship


 We gratefully acknowledge several colleagues who have allowed us to
 interface, adapt or use parts of their codes:
   Stefan Grimme, W. Hujo, H. Kruse, T. Risthaus : VdW corrections, initial TS optimization,
                                                   DFT functionals, gCP
   Ed Valeev                                     : LibInt (2-el integral package), F12 methods
   Garnet Chan, S. Sharma, R. Olivares           : DMRG
   Ulf Ekstrom                                   : XCFun DFT Library
   Mihaly Kallay                                 : mrcc  (arbitrary order and MRCC methods)
   Andreas Klamt, Michael Diedenhofen            : otool_cosmo (COSMO solvation model)
   Frank Weinhold                                : gennbo (NPA and NBO analysis)
   Christopher J. Cramer and Donald G. Truhlar   : smd solvation model


 Your calculation uses the libint2 library for the computation of 2-el integrals
 For citations please refer to: http://libint.valeyev.net

 This ORCA versions uses:
   CBLAS   interface :  Fast vector & matrix operations
   LAPACKE interface :  Fast linear algebra routines
   SCALAPACK package :  Parallel linear algebra routines


Your calculation utilizes the basis: Ahlrichs-VDZ
Cite in your paper:
H - Kr: A. Schaefer, H. Horn and R. Ahlrichs, J. Chem. Phys. 97, 2571 (1992).

Your calculation utilizes the basis: Ahlrichs SVPalls1+f
Cite in your paper:
Rb - Xe: A. Schaefer, C. Huber and R. Ahlrichs, J. Chem. Phys. 100, 5829 (1994).

================================================================================
                                        WARNINGS
                       Please study these warnings very carefully!
================================================================================
Now building the actual basis set


INFO   : the flag for use of LIBINT has been found!

================================================================================
                                       INPUT FILE
================================================================================
NAME = 2515.inp
|  1> ! RI PBE def2-SVP def2-SVP/J NBO PAL2
|  2> % maxcore 2000
|  3> % output
|  4>     # printlevel mini
|  5>     print[ P_Basis ] 0
|  6>     print[ P_SCFInfo ] 1
|  7>     print[ P_SCFIterInfo ] 1
|  8>     print[ P_OrbEn ] 0
|  9>     print[ P_Cartesian ] 0
| 10> end
| 11> *xyz 0 1
| 12>  C        1.2577730000    -0.2678420000     0.1959390000 
| 13>  C        2.6911520000     0.1999940000     0.3357980000 
| 14>  N        3.2819920000    -0.2851610000     1.5668600000 
| 15>  C        4.6831870000     0.0545790000     1.7131360000 
| 16>  C        5.1844230000    -0.2522170000     3.1219390000 
| 17>  C        4.6491070000     0.7457510000     4.1411950000 
| 18>  N        4.8687010000    -1.6436320000     3.4417900000 
| 19>  H        0.8064820000     0.1244590000    -0.7179010000 
| 20>  H        0.6602450000     0.0622300000     1.0483530000 
| 21>  H        1.2033190000    -1.3596730000     0.1485850000 
| 22>  H        2.7210890000     1.2951380000     0.3568700000 
| 23>  H        3.2683200000    -0.1071970000    -0.5551480000 
| 24>  H        3.1997400000    -1.2958900000     1.5926510000 
| 25>  H        4.7969250000     1.1265610000     1.5194570000 
| 26>  H        5.3181300000    -0.4750150000     0.9838650000 
| 27>  H        6.2770260000    -0.1758800000     3.0925000000 
| 28>  H        3.5561260000     0.7395000000     4.1313430000 
| 29>  H        4.9827580000     1.7635120000     3.9188050000 
| 30>  H        4.9895860000     0.4932900000     5.1489420000 
| 31>  H        3.8947980000    -1.7070960000     3.7193590000 
| 32>  H        5.4094070000    -1.9501920000     4.2408620000 
| 33> *
| 34> 
| 35>                          ****END OF INPUT****
================================================================================

                       ****************************
                       * Single Point Calculation *
                       ****************************

--------------------------------
INTERNAL COORDINATES (ANGSTROEM)
--------------------------------
 C      0   0   0   0.000000     0.000     0.000
 C      1   0   0   1.514268     0.000     0.000
 N      2   1   0   1.449131   111.160     0.000
 C      3   2   1   1.449195   113.671   176.021
 C      4   3   2   1.526462   111.317   169.625
 C      5   4   3   1.523610   111.740   287.020
 N      5   4   3   1.462197   108.798    53.310
 H      1   2   3   1.092093   110.945   178.290
 H      1   2   3   1.092061   110.638    57.723
 H      1   2   3   1.094213   111.062   297.863
 H      2   1   3   1.095756   109.659   240.791
 H      2   1   3   1.105113   109.514   124.625
 H      3   2   1   1.014398   108.791    55.622
 H      4   3   2   1.095259   108.180    49.871
 H      4   3   2   1.102478   112.177   292.010
 H      5   4   3   1.095662   106.777   168.133
 H      6   5   4   1.093043   109.971    58.047
 H      6   5   4   1.093900   111.484   298.327
 H      6   5   4   1.093260   110.853   178.110
 H      7   5   4   1.014672   109.063   280.000
 H      7   5   4   1.012353   110.212   163.870

---------------------------
INTERNAL COORDINATES (A.U.)
---------------------------
 C      0   0   0   0.000000     0.000     0.000
 C      1   0   0   2.861551     0.000     0.000
 N      2   1   0   2.738461   111.160     0.000
 C      3   2   1   2.738582   113.671   176.021
 C      4   3   2   2.884596   111.317   169.625
 C      5   4   3   2.879205   111.740   287.020
 N      5   4   3   2.763152   108.798    53.310
 H      1   2   3   2.063757   110.945   178.290
 H      1   2   3   2.063696   110.638    57.723
 H      1   2   3   2.067763   111.062   297.863
 H      2   1   3   2.070678   109.659   240.791
 H      2   1   3   2.088360   109.514   124.625
 H      3   2   1   1.916935   108.791    55.622
 H      4   3   2   2.069740   108.180    49.871
 H      4   3   2   2.083382   112.177   292.010
 H      5   4   3   2.070501   106.777   168.133
 H      6   5   4   2.065552   109.971    58.047
 H      6   5   4   2.067172   111.484   298.327
 H      6   5   4   2.065961   110.853   178.110
 H      7   5   4   1.917452   109.063   280.000
 H      7   5   4   1.913069   110.212   163.870



           ************************************************************
           *        Program running with 2 parallel MPI-processes     *
           *              working on a common directory               *
           ************************************************************
------------------------------------------------------------------------------
                           ORCA GTO INTEGRAL CALCULATION
                           -- RI-GTO INTEGRALS CHOSEN --
------------------------------------------------------------------------------

                         BASIS SET STATISTICS AND STARTUP INFO

Gaussian basis set:
 # of primitive gaussian shells          ...  154
 # of primitive gaussian functions       ...  266
 # of contracted shells                  ...   84
 # of contracted basis functions         ...  168
 Highest angular momentum                ...    2
 Maximum contraction depth               ...    5
Auxiliary gaussian basis set:
 # of primitive gaussian shells          ...  280
 # of primitive gaussian functions       ...  714
 # of contracted shells                  ...  175
 # of contracted aux-basis functions     ...  497
 Highest angular momentum                ...    4
 Maximum contraction depth               ...    7
Ratio of auxiliary to basis functions    ...  2.96
Integral package used                  ... LIBINT
 One Electron integrals                  ... done
 Ordering auxiliary basis shells         ... done
 Integral threshhold             Thresh  ...  1.000e-10
 Primitive cut-off               TCut    ...  1.000e-11
 Pre-screening matrix                    ... done
 Shell pair data                         ... 
 Ordering of the shell pairs             ... done (   0.001 sec) 3327 of 3570 pairs
 Determination of significant pairs      ... done (   0.000 sec)
 Creation of shell pair data             ... done (   0.001 sec)
 Storage of shell pair data              ... done (   0.001 sec)
 Shell pair data done in (   0.002 sec)
 Computing two index integrals           ... done
 Cholesky decomposition of the V-matrix  ... done


Timings:
 Total evaluation time                   ...   0.167 sec (  0.003 min)
 One electron matrix time                ...   0.023 sec (  0.000 min) = 13.5%
 Schwartz matrix evaluation time         ...   0.077 sec (  0.001 min) = 45.8%
 Two index repulsion integral time       ...   0.007 sec (  0.000 min) =  4.2%
 Cholesky decomposition of V             ...   0.005 sec (  0.000 min) =  3.0%
 Three index repulsion integral time     ...   0.000 sec (  0.000 min) =  0.0%

           ************************************************************
           *              Shut down parallel processing               *
           ************************************************************


           ************************************************************
           *        Program running with 2 parallel MPI-processes     *
           *              working on a common directory               *
           ************************************************************
-------------------------------------------------------------------------------
                                 ORCA SCF
-------------------------------------------------------------------------------

------------
SCF SETTINGS
------------
Hamiltonian:
 Density Functional     Method          .... DFT(GTOs)
 Exchange Functional    Exchange        .... PBE
   PBE kappa parameter  XKappa          ....  0.804000
 Correlation Functional Correlation     .... PBE
 LDA part of GGA corr.  LDAOpt          .... PW91-LDA
 Gradients option       PostSCFGGA      .... off
   NL short-range parameter             ....  6.400000
 RI-approximation to the Coulomb term is turned on
   Number of auxiliary basis functions  .... 497


General Settings:
 Integral files         IntName         .... 2515
 Hartree-Fock type      HFTyp           .... RHF
 Total Charge           Charge          ....    0
 Multiplicity           Mult            ....    1
 Number of Electrons    NEL             ....   58
 Basis Dimension        Dim             ....  168
 Nuclear Repulsion      ENuc            ....    331.0693131975 Eh

Convergence Acceleration:
 DIIS                   CNVDIIS         .... on
   Start iteration      DIISMaxIt       ....    12
   Startup error        DIISStart       ....  0.200000
   # of expansion vecs  DIISMaxEq       ....     5
   Bias factor          DIISBfac        ....   1.050
   Max. coefficient     DIISMaxC        ....  10.000
 Newton-Raphson         CNVNR           .... off
 SOSCF                  CNVSOSCF        .... on
   Start iteration      SOSCFMaxIt      ....   150
   Startup grad/error   SOSCFStart      ....  0.003300
 Level Shifting         CNVShift        .... on
   Level shift para.    LevelShift      ....    0.2500
   Turn off err/grad.   ShiftErr        ....    0.0010
 Zerner damping         CNVZerner       .... off
 Static damping         CNVDamp         .... on
   Fraction old density DampFac         ....    0.7000
   Max. Damping (<1)    DampMax         ....    0.9800
   Min. Damping (>=0)   DampMin         ....    0.0000
   Turn off err/grad.   DampErr         ....    0.1000
 Fernandez-Rico         CNVRico         .... off

SCF Procedure:
 Maximum # iterations   MaxIter         ....   125
 SCF integral mode      SCFMode         .... Direct
   Integral package                     .... LIBINT
 Reset frequeny         DirectResetFreq ....    20
 Integral Threshold     Thresh          ....  1.000e-10 Eh
 Primitive CutOff       TCut            ....  1.000e-11 Eh

Convergence Tolerance:
 Convergence Check Mode ConvCheckMode   .... Total+1el-Energy
 Energy Change          TolE            ....  1.000e-06 Eh
 1-El. energy change                    ....  1.000e-03 Eh
 Orbital Gradient       TolG            ....  5.000e-05
 Orbital Rotation angle TolX            ....  5.000e-05
 DIIS Error             TolErr          ....  1.000e-06


Diagonalization of the overlap matrix:
Smallest eigenvalue                        ... 1.735e-03
Time for diagonalization                   ...    0.016 sec
Threshold for overlap eigenvalues          ... 1.000e-08
Number of eigenvalues below threshold      ... 0
Time for construction of square roots      ...    0.004 sec
Total time needed                          ...    0.020 sec

-------------------
DFT GRID GENERATION
-------------------

General Integration Accuracy     IntAcc      ...  4.340
Radial Grid Type                 RadialGrid  ... Gauss-Chebyshev
Angular Grid (max. acc.)         AngularGrid ... Lebedev-110
Angular grid pruning method      GridPruning ... 3 (G Style)
Weight generation scheme         WeightScheme... Becke
Basis function cutoff            BFCut       ...    1.0000e-10
Integration weight cutoff        WCut        ...    1.0000e-14
Grids for H and He will be reduced by one unit

# of grid points (after initial pruning)     ...  22800 (   0.0 sec)
# of grid points (after weights+screening)   ...  20845 (   0.1 sec)
nearest neighbour list constructed           ...    0.0 sec
Grid point re-assignment to atoms done       ...    0.0 sec
Grid point division into batches done        ...    0.0 sec
Reduced shell lists constructed in    0.1 sec

Total number of grid points                  ...    20845
Total number of batches                      ...      335
Average number of points per batch           ...       62
Average number of grid points per atom       ...      993
Average number of shells per batch           ...    58.63 (69.79%)
Average number of basis functions per batch  ...   112.11 (66.73%)
Average number of large shells per batch     ...    45.29 (77.25%)
Average number of large basis fcns per batch ...    85.73 (76.47%)
Maximum spatial batch extension              ...  20.22, 25.60, 16.34 au
Average spatial batch extension              ...   1.51,  1.64,  1.44 au

Time for grid setup =    0.180 sec

------------------------------
INITIAL GUESS: MODEL POTENTIAL
------------------------------
Loading Hartree-Fock densities                     ... done
Calculating cut-offs                               ... done
Setting up the integral package                    ... done
Initializing the effective Hamiltonian             ... done
Starting the Coulomb interaction                   ... done (   0.1 sec)
Reading the grid                                   ... done
Mapping shells                                     ... done
Starting the XC term evaluation                    ... done (   0.2 sec)
  promolecular density results
     # of electrons  =     58.002728077
     EX              =    -42.806373410
     EC              =     -1.895788079
     EX+EC           =    -44.702161488
Transforming the Hamiltonian                       ... done (   0.0 sec)
Diagonalizing the Hamiltonian                      ... done (   0.0 sec)
Back transforming the eigenvectors                 ... done (   0.0 sec)
Now organizing SCF variables                       ... done
                      ------------------
                      INITIAL GUESS DONE (   0.5 sec)
                      ------------------
--------------
SCF ITERATIONS
--------------
ITER       Energy         Delta-E        Max-DP      RMS-DP      [F,P]     Damp
               ***  Starting incremental Fock matrix formation  ***
  0   -307.5514743652   0.000000000000 0.08777053  0.00284962  0.2295405 0.7000
  1   -307.6813770642  -0.129902698998 0.04751787  0.00203838  0.0925193 0.7000
                               ***Turning on DIIS***
  2   -307.7241154612  -0.042738396982 0.06537063  0.00298261  0.0212773 0.0000
  3   -307.7881623794  -0.064046918219 0.03253812  0.00141525  0.0575005 0.0000
  4   -307.8086041759  -0.020441796445 0.01024197  0.00042754  0.0111721 0.0000
  5   -307.8097234506  -0.001119274751 0.00477240  0.00018792  0.0044591 0.0000
                      *** Initiating the SOSCF procedure ***
                           *** Shutting down DIIS ***
                      *** Re-Reading the Fockian *** 
                      *** Removing any level shift *** 
ITER      Energy       Delta-E        Grad      Rot      Max-DP    RMS-DP
  6   -307.80983482  -0.0001113703  0.000277  0.000277  0.003257  0.000122
               *** Restarting incremental Fock matrix formation ***
  7   -307.80984449  -0.0000096700  0.000096  0.000260  0.000708  0.000030
  8   -307.80984330   0.0000011956  0.000163  0.000127  0.000485  0.000017
                  ***Gradient check signals convergence***
              ***Rediagonalizing the Fockian in SOSCF/NRSCF***

               *****************************************************
               *                     SUCCESS                       *
               *           SCF CONVERGED AFTER   9 CYCLES          *
               *****************************************************

Setting up the final grid:

General Integration Accuracy     IntAcc      ...  4.670
Radial Grid Type                 RadialGrid  ... Gauss-Chebyshev
Angular Grid (max. acc.)         AngularGrid ... Lebedev-302
Angular grid pruning method      GridPruning ... 3 (G Style)
Weight generation scheme         WeightScheme... Becke
Basis function cutoff            BFCut       ...    1.0000e-10
Integration weight cutoff        WCut        ...    1.0000e-14
Grids for H and He will be reduced by one unit

# of grid points (after initial pruning)     ...  91000 (   0.0 sec)
# of grid points (after weights+screening)   ...  81993 (   0.2 sec)
nearest neighbour list constructed           ...    0.0 sec
Grid point re-assignment to atoms done       ...    0.0 sec
Grid point division into batches done        ...    0.3 sec
Reduced shell lists constructed in    0.5 sec

Total number of grid points                  ...    81993
Total number of batches                      ...     1292
Average number of points per batch           ...       63
Average number of grid points per atom       ...     3904
Average number of shells per batch           ...    54.67 (65.08%)
Average number of basis functions per batch  ...   103.95 (61.88%)
Average number of large shells per batch     ...    41.15 (75.26%)
Average number of large basis fcns per batch ...    77.16 (74.22%)
Maximum spatial batch extension              ...  17.42, 19.61, 15.09 au
Average spatial batch extension              ...   1.00,  1.04,  0.97 au

Final grid set up in    0.7 sec
Final integration                            ... done (   0.6 sec)
Change in XC energy                          ...     0.001222291
Integrated number of electrons               ...    58.000060448
Previous integrated no of electrons          ...    58.006608524

----------------
TOTAL SCF ENERGY
----------------

Total Energy       :         -307.80862312 Eh           -8375.89846 eV

Components:
Nuclear Repulsion  :          331.06931320 Eh            9008.85401 eV
Electronic Energy  :         -638.87793632 Eh          -17384.75247 eV

One Electron Energy:        -1071.16115990 Eh          -29147.77701 eV
Two Electron Energy:          432.28322357 Eh           11763.02453 eV

Virial components:
Potential Energy   :         -612.42017604 Eh          -16664.80021 eV
Kinetic Energy     :          304.61155292 Eh            8288.90175 eV
Virial Ratio       :            2.01049556


DFT components:
N(Alpha)           :       29.000030224195 electrons
N(Beta)            :       29.000030224195 electrons
N(Total)           :       58.000060448390 electrons
E(X)               :      -43.875056587958 Eh       
E(C)               :       -1.909787312369 Eh       
E(XC)              :      -45.784843900327 Eh       

---------------
SCF CONVERGENCE
---------------

  Last Energy change         ...   -2.1193e-06  Tolerance :   1.0000e-06
  Last MAX-Density change    ...    8.3147e-05  Tolerance :   1.0000e-05
  Last RMS-Density change    ...    2.7612e-06  Tolerance :   1.0000e-06
  Last Orbital Gradient      ...    1.1896e-05  Tolerance :   5.0000e-05
  Last Orbital Rotation      ...    2.2789e-05  Tolerance :   5.0000e-05

             **** THE GBW FILE WAS UPDATED (2515.gbw) ****
             **** DENSITY FILE WAS UPDATED (2515.scfp.tmp) ****
             **** ENERGY FILE WAS UPDATED (2515.en.tmp) ****

                    ********************************
                    * MULLIKEN POPULATION ANALYSIS *
                    ********************************

-----------------------
MULLIKEN ATOMIC CHARGES
-----------------------
   0 C :   -0.041140
   1 C :    0.072535
   2 N :   -0.288879
   3 C :    0.151362
   4 C :   -0.065713
   5 C :    0.020354
   6 N :   -0.194033
   7 H :    0.018105
   8 H :    0.029418
   9 H :    0.023655
  10 H :    0.012668
  11 H :   -0.018508
  12 H :    0.096448
  13 H :   -0.007206
  14 H :   -0.017987
  15 H :    0.003717
  16 H :    0.022695
  17 H :    0.003860
  18 H :    0.003532
  19 H :    0.086447
  20 H :    0.088669
Sum of atomic charges:   -0.0000000

--------------------------------
MULLIKEN REDUCED ORBITAL CHARGES
--------------------------------
  0 C s       :     2.996308  s :     2.996308
      pz      :     1.014694  p :     3.019672
      px      :     0.992140
      py      :     1.012838
      dz2     :     0.004880  d :     0.025160
      dxz     :     0.006724
      dyz     :     0.002200
      dx2y2   :     0.007562
      dxy     :     0.003794
  1 C s       :     2.981356  s :     2.981356
      pz      :     0.890156  p :     2.896127
      px      :     0.978582
      py      :     1.027389
      dz2     :     0.014846  d :     0.049982
      dxz     :     0.012999
      dyz     :     0.006331
      dx2y2   :     0.010035
      dxy     :     0.005772
  2 N s       :     3.508292  s :     3.508292
      pz      :     1.400162  p :     3.757175
      px      :     1.210866
      py      :     1.146147
      dz2     :     0.006643  d :     0.023411
      dxz     :     0.004019
      dyz     :     0.002186
      dx2y2   :     0.007954
      dxy     :     0.002610
  3 C s       :     2.940995  s :     2.940995
      pz      :     1.004692  p :     2.859835
      px      :     0.863694
      py      :     0.991448
      dz2     :     0.008614  d :     0.047809
      dxz     :     0.013926
      dyz     :     0.004398
      dx2y2   :     0.012912
      dxy     :     0.007959
  4 C s       :     3.058970  s :     3.058970
      pz      :     1.018804  p :     2.949726
      px      :     1.033074
      py      :     0.897848
      dz2     :     0.012899  d :     0.057017
      dxz     :     0.005262
      dyz     :     0.015621
      dx2y2   :     0.015633
      dxy     :     0.007603
  5 C s       :     2.981878  s :     2.981878
      pz      :     0.972826  p :     2.973257
      px      :     1.020933
      py      :     0.979498
      dz2     :     0.007440  d :     0.024511
      dxz     :     0.002941
      dyz     :     0.003842
      dx2y2   :     0.007531
      dxy     :     0.002757
  6 N s       :     3.416523  s :     3.416523
      pz      :     1.407488  p :     3.759064
      px      :     1.075093
      py      :     1.276484
      dz2     :     0.004056  d :     0.018445
      dxz     :     0.004404
      dyz     :     0.002337
      dx2y2   :     0.005635
      dxy     :     0.002013
  7 H s       :     0.958376  s :     0.958376
      pz      :     0.011053  p :     0.023519
      px      :     0.006045
      py      :     0.006421
  8 H s       :     0.947229  s :     0.947229
      pz      :     0.010550  p :     0.023353
      px      :     0.006809
      py      :     0.005994
  9 H s       :     0.952583  s :     0.952583
      pz      :     0.005800  p :     0.023762
      px      :     0.004701
      py      :     0.013262
 10 H s       :     0.965914  s :     0.965914
      pz      :     0.003736  p :     0.021418
      px      :     0.004465
      py      :     0.013217
 11 H s       :     0.997422  s :     0.997422
      pz      :     0.009568  p :     0.021086
      px      :     0.006191
      py      :     0.005327
 12 H s       :     0.858639  s :     0.858639
      pz      :     0.012230  p :     0.044912
      px      :     0.010239
      py      :     0.022443
 13 H s       :     0.985781  s :     0.985781
      pz      :     0.004903  p :     0.021426
      px      :     0.003346
      py      :     0.013177
 14 H s       :     0.996950  s :     0.996950
      pz      :     0.007778  p :     0.021037
      px      :     0.006342
      py      :     0.006917
 15 H s       :     0.976268  s :     0.976268
      pz      :     0.004176  p :     0.020015
      px      :     0.012957
      py      :     0.002882
 16 H s       :     0.953152  s :     0.953152
      pz      :     0.005321  p :     0.024153
      px      :     0.013752
      py      :     0.005080
 17 H s       :     0.972412  s :     0.972412
      pz      :     0.005407  p :     0.023728
      px      :     0.006145
      py      :     0.012176
 18 H s       :     0.973005  s :     0.973005
      pz      :     0.011855  p :     0.023462
      px      :     0.006150
      py      :     0.005457
 19 H s       :     0.867023  s :     0.867023
      pz      :     0.013670  p :     0.046530
      px      :     0.022335
      py      :     0.010525
 20 H s       :     0.864871  s :     0.864871
      pz      :     0.018821  p :     0.046460
      px      :     0.015156
      py      :     0.012483


                     *******************************
                     * LOEWDIN POPULATION ANALYSIS *
                     *******************************

----------------------
LOEWDIN ATOMIC CHARGES
----------------------
   0 C :   -0.074933
   1 C :    0.008313
   2 N :   -0.105361
   3 C :    0.013420
   4 C :   -0.012181
   5 C :   -0.079313
   6 N :   -0.098357
   7 H :    0.029124
   8 H :    0.027394
   9 H :    0.023930
  10 H :    0.019005
  11 H :   -0.002957
  12 H :    0.049159
  13 H :    0.017763
  14 H :    0.000014
  15 H :    0.022225
  16 H :    0.023483
  17 H :    0.023263
  18 H :    0.017615
  19 H :    0.046664
  20 H :    0.051728

-------------------------------
LOEWDIN REDUCED ORBITAL CHARGES
-------------------------------
  0 C s       :     2.840580  s :     2.840580
      pz      :     1.068882  p :     3.165395
      px      :     1.032540
      py      :     1.063973
      dz2     :     0.014145  d :     0.068958
      dxz     :     0.017618
      dyz     :     0.006153
      dx2y2   :     0.021519
      dxy     :     0.009523
  1 C s       :     2.834840  s :     2.834840
      pz      :     0.964164  p :     3.036707
      px      :     1.018863
      py      :     1.053681
      dz2     :     0.038349  d :     0.120140
      dxz     :     0.030303
      dyz     :     0.013186
      dx2y2   :     0.025942
      dxy     :     0.012360
  2 N s       :     3.130525  s :     3.130525
      pz      :     1.437242  p :     3.921535
      px      :     1.260539
      py      :     1.223754
      dz2     :     0.014019  d :     0.053301
      dxz     :     0.008855
      dyz     :     0.004471
      dx2y2   :     0.019988
      dxy     :     0.005968
  3 C s       :     2.841091  s :     2.841091
      pz      :     1.038205  p :     3.027956
      px      :     0.933421
      py      :     1.056330
      dz2     :     0.023739  d :     0.117534
      dxz     :     0.033184
      dyz     :     0.010905
      dx2y2   :     0.032973
      dxy     :     0.016733
  4 C s       :     2.841656  s :     2.841656
      pz      :     1.036803  p :     3.037986
      px      :     1.053864
      py      :     0.947319
      dz2     :     0.031162  d :     0.132538
      dxz     :     0.012505
      dyz     :     0.035881
      dx2y2   :     0.038101
      dxy     :     0.014889
  5 C s       :     2.847784  s :     2.847784
      pz      :     1.041094  p :     3.162377
      px      :     1.074599
      py      :     1.046684
      dz2     :     0.020288  d :     0.069152
      dxz     :     0.007894
      dyz     :     0.012590
      dx2y2   :     0.020904
      dxy     :     0.007476
  6 N s       :     3.130381  s :     3.130381
      pz      :     1.449786  p :     3.925095
      px      :     1.162464
      py      :     1.312845
      dz2     :     0.007841  d :     0.042881
      dxz     :     0.010029
      dyz     :     0.004792
      dx2y2   :     0.015336
      dxy     :     0.004882
  7 H s       :     0.904249  s :     0.904249
      pz      :     0.031848  p :     0.066626
      px      :     0.018194
      py      :     0.016584
  8 H s       :     0.905347  s :     0.905347
      pz      :     0.030398  p :     0.067259
      px      :     0.021493
      py      :     0.015369
  9 H s       :     0.909659  s :     0.909659
      pz      :     0.013289  p :     0.066410
      px      :     0.013678
      py      :     0.039443
 10 H s       :     0.916554  s :     0.916554
      pz      :     0.010670  p :     0.064441
      px      :     0.012989
      py      :     0.040783
 11 H s       :     0.936573  s :     0.936573
      pz      :     0.032308  p :     0.066384
      px      :     0.019618
      py      :     0.014457
 12 H s       :     0.823788  s :     0.823788
      pz      :     0.033487  p :     0.127053
      px      :     0.026082
      py      :     0.067484
 13 H s       :     0.916683  s :     0.916683
      pz      :     0.014542  p :     0.065554
      px      :     0.010945
      py      :     0.040067
 14 H s       :     0.932396  s :     0.932396
      pz      :     0.026198  p :     0.067590
      px      :     0.022525
      py      :     0.018866
 15 H s       :     0.911929  s :     0.911929
      pz      :     0.014238  p :     0.065846
      px      :     0.040392
      py      :     0.011216
 16 H s       :     0.907731  s :     0.907731
      pz      :     0.013585  p :     0.068785
      px      :     0.042044
      py      :     0.013156
 17 H s       :     0.909565  s :     0.909565
      pz      :     0.013999  p :     0.067172
      px      :     0.015678
      py      :     0.037496
 18 H s       :     0.915402  s :     0.915402
      pz      :     0.036519  p :     0.066983
      px      :     0.016094
      py      :     0.014369
 19 H s       :     0.828829  s :     0.828829
      pz      :     0.036320  p :     0.124507
      px      :     0.060142
      py      :     0.028045
 20 H s       :     0.824343  s :     0.824343
      pz      :     0.058202  p :     0.123928
      px      :     0.032266
      py      :     0.033460


                      *****************************
                      * MAYER POPULATION ANALYSIS *
                      *****************************

  NA   - Mulliken gross atomic population
  ZA   - Total nuclear charge
  QA   - Mulliken gross atomic charge
  VA   - Mayer's total valence
  BVA  - Mayer's bonded valence
  FA   - Mayer's free valence

  ATOM       NA         ZA         QA         VA         BVA        FA
  0 C      6.0411     6.0000    -0.0411     4.0245     4.0245    -0.0000
  1 C      5.9275     6.0000     0.0725     4.0741     4.0741    -0.0000
  2 N      7.2889     7.0000    -0.2889     3.1405     3.1405    -0.0000
  3 C      5.8486     6.0000     0.1514     3.9600     3.9600     0.0000
  4 C      6.0657     6.0000    -0.0657     4.2463     4.2463    -0.0000
  5 C      5.9796     6.0000     0.0204     3.9317     3.9317    -0.0000
  6 N      7.1940     7.0000    -0.1940     3.0960     3.0960     0.0000
  7 H      0.9819     1.0000     0.0181     0.9886     0.9886    -0.0000
  8 H      0.9706     1.0000     0.0294     0.9985     0.9985     0.0000
  9 H      0.9763     1.0000     0.0237     0.9905     0.9905    -0.0000
 10 H      0.9873     1.0000     0.0127     0.9781     0.9781     0.0000
 11 H      1.0185     1.0000    -0.0185     0.9735     0.9735     0.0000
 12 H      0.9036     1.0000     0.0964     1.0200     1.0200    -0.0000
 13 H      1.0072     1.0000    -0.0072     0.9927     0.9927    -0.0000
 14 H      1.0180     1.0000    -0.0180     0.9867     0.9867     0.0000
 15 H      0.9963     1.0000     0.0037     0.9701     0.9701    -0.0000
 16 H      0.9773     1.0000     0.0227     1.0258     1.0258    -0.0000
 17 H      0.9961     1.0000     0.0039     0.9914     0.9914    -0.0000
 18 H      0.9965     1.0000     0.0035     0.9973     0.9973     0.0000
 19 H      0.9136     1.0000     0.0864     1.0158     1.0158     0.0000
 20 H      0.9113     1.0000     0.0887     1.0017     1.0017    -0.0000

  Mayer bond orders larger than 0.1
B(  0-C ,  1-C ) :   1.1150 B(  0-C ,  7-H ) :   0.9564 B(  0-C ,  8-H ) :   0.9625 
B(  0-C ,  9-H ) :   0.9679 B(  1-C ,  2-N ) :   1.0358 B(  1-C , 10-H ) :   0.9395 
B(  1-C , 11-H ) :   0.9159 B(  2-N ,  3-C ) :   1.0301 B(  2-N , 12-H ) :   0.9271 
B(  3-C ,  4-C ) :   1.0399 B(  3-C , 13-H ) :   0.9308 B(  3-C , 14-H ) :   0.9088 
B(  4-C ,  5-C ) :   1.0729 B(  4-C ,  6-N ) :   1.0957 B(  4-C , 15-H ) :   0.9129 
B(  5-C , 16-H ) :   0.9525 B(  5-C , 17-H ) :   0.9468 B(  5-C , 18-H ) :   0.9601 
B(  6-N , 19-H ) :   0.9632 B(  6-N , 20-H ) :   0.9690 


 *********************************** NBO 6.0 ***********************************
             N A T U R A L   A T O M I C   O R B I T A L   A N D
          N A T U R A L   B O N D   O R B I T A L   A N A L Y S I S
 ***************************** Kiya KiyaLu (100703) ****************************
  (c) Copyright 1996-2015 Board of Regents of the University of Wisconsin System
      on behalf of the Theoretical Chemistry Institute.  All rights reserved.

          Cite this program as:

          NBO 6.0.  E. D. Glendening, J. K. Badenhoop, A. E. Reed,
          J. E. Carpenter, J. A. Bohmann, C. M. Morales, C. R. Landis,
          and F. Weinhold (Theoretical Chemistry Institute, University
          of Wisconsin, Madison, WI, 2013); http://nbo6.chem.wisc.edu/

       /NPA    / : Natural Population Analysis
       /NBO    / : Natural Bond Orbital Analysis
       /AONBO  / : Write the AO to NBO transformation to lfn77
       /FILE   / : Set to 2515

 Filename set to 2515

 Job title:  *** NBO job generated by orca_scf

 Warning: MOs are non-orthogonal; program will continue

 Warning: -2366.77870 electrons reside outside the linearly independent MO space


 NATURAL POPULATIONS:  Natural atomic orbital occupancies

  NAO Atom No lang   Type(AO)    Occupancy      Energy
 -------------------------------------------------------
   1    C  1  s      Cor( 1s)     1.99922      -9.76738
   2    C  1  s      Val( 2s)     1.09161      -0.21151
   3    C  1  s      Ryd( 3s)     0.00037       0.81371
   4    C  1  px     Val( 2p)     1.10942      -0.06224
   5    C  1  px     Ryd( 3p)     0.00119       0.47863
   6    C  1  py     Val( 2p)     1.21375      -0.06018
   7    C  1  py     Ryd( 3p)     0.00141       0.55833
   8    C  1  pz     Val( 2p)     1.23421      -0.05923
   9    C  1  pz     Ryd( 3p)     0.00214       0.59145
  10    C  1  dxy    Ryd( 3d)     0.00031       2.09015
  11    C  1  dxz    Ryd( 3d)     0.00057       2.25574
  12    C  1  dyz    Ryd( 3d)     0.00024       2.14128
  13    C  1  dx2y2  Ryd( 3d)     0.00065       2.31951
  14    C  1  dz2    Ryd( 3d)     0.00050       2.25617

  15    C  2  s      Cor( 1s)     1.99918      -9.79375
  16    C  2  s      Val( 2s)     0.99319      -0.18411
  17    C  2  s      Ryd( 3s)     0.00204       0.81220
  18    C  2  px     Val( 2p)     1.05508      -0.06377
  19    C  2  px     Ryd( 3p)     0.00220       0.65682
  20    C  2  py     Val( 2p)     1.17014      -0.05999
  21    C  2  py     Ryd( 3p)     0.00147       0.60143
  22    C  2  pz     Val( 2p)     0.98976      -0.04512
  23    C  2  pz     Ryd( 3p)     0.00221       0.54522
  24    C  2  dxy    Ryd( 3d)     0.00056       2.06401
  25    C  2  dxz    Ryd( 3d)     0.00109       2.22823
  26    C  2  dyz    Ryd( 3d)     0.00060       2.10767
  27    C  2  dx2y2  Ryd( 3d)     0.00086       2.34945
  28    C  2  dz2    Ryd( 3d)     0.00144       2.25680

  29    N  3  s      Cor( 1s)     1.99934     -13.81391
  30    N  3  s      Val( 2s)     1.32776      -0.46070
  31    N  3  s      Ryd( 3s)     0.00199       1.15316
  32    N  3  px     Val( 2p)     1.39080      -0.16983
  33    N  3  px     Ryd( 3p)     0.00252       1.05467
  34    N  3  py     Val( 2p)     1.41259      -0.15787
  35    N  3  py     Ryd( 3p)     0.00253       1.07568
  36    N  3  pz     Val( 2p)     1.57249      -0.17434
  37    N  3  pz     Ryd( 3p)     0.00434       1.01935
  38    N  3  dxy    Ryd( 3d)     0.00042       2.41190
  39    N  3  dxz    Ryd( 3d)     0.00096       2.41271
  40    N  3  dyz    Ryd( 3d)     0.00065       2.38762
  41    N  3  dx2y2  Ryd( 3d)     0.00127       2.82101
  42    N  3  dz2    Ryd( 3d)     0.00136       2.59803

  43    C  4  s      Cor( 1s)     1.99910      -9.78290
  44    C  4  s      Val( 2s)     0.98710      -0.17453
  45    C  4  s      Ryd( 3s)     0.00258       0.86254
  46    C  4  px     Val( 2p)     0.91286      -0.04220
  47    C  4  px     Ryd( 3p)     0.00295       0.59597
  48    C  4  py     Val( 2p)     1.19836      -0.05907
  49    C  4  py     Ryd( 3p)     0.00451       0.71477
  50    C  4  pz     Val( 2p)     1.11669      -0.06292
  51    C  4  pz     Ryd( 3p)     0.00295       0.66482
  52    C  4  dxy    Ryd( 3d)     0.00070       2.14085
  53    C  4  dxz    Ryd( 3d)     0.00119       2.19512
  54    C  4  dyz    Ryd( 3d)     0.00040       2.13456
  55    C  4  dx2y2  Ryd( 3d)     0.00126       2.34001
  56    C  4  dz2    Ryd( 3d)     0.00083       2.22132

  57    C  5  s      Cor( 1s)     1.99901      -9.79413
  58    C  5  s      Val( 2s)     0.92148      -0.16369
  59    C  5  s      Ryd( 3s)     0.00121       0.87225
  60    C  5  px     Val( 2p)     1.17797      -0.05937
  61    C  5  px     Ryd( 3p)     0.00513       0.76910
  62    C  5  py     Val( 2p)     0.88846      -0.05640
  63    C  5  py     Ryd( 3p)     0.00447       0.59178
  64    C  5  pz     Val( 2p)     1.04249      -0.06880
  65    C  5  pz     Ryd( 3p)     0.00229       0.59014
  66    C  5  dxy    Ryd( 3d)     0.00071       2.04264
  67    C  5  dxz    Ryd( 3d)     0.00046       2.05569
  68    C  5  dyz    Ryd( 3d)     0.00134       2.11866
  69    C  5  dx2y2  Ryd( 3d)     0.00140       2.42777
  70    C  5  dz2    Ryd( 3d)     0.00115       2.23491

  71    C  6  s      Cor( 1s)     1.99916      -9.75713
  72    C  6  s      Val( 2s)     1.09201      -0.20465
  73    C  6  s      Ryd( 3s)     0.00074       0.83386
  74    C  6  px     Val( 2p)     1.22543      -0.05703
  75    C  6  px     Ryd( 3p)     0.00142       0.57658
  76    C  6  py     Val( 2p)     1.17640      -0.05903
  77    C  6  py     Ryd( 3p)     0.00189       0.54352
  78    C  6  pz     Val( 2p)     1.17275      -0.05788
  79    C  6  pz     Ryd( 3p)     0.00317       0.58998
  80    C  6  dxy    Ryd( 3d)     0.00026       2.12227
  81    C  6  dxz    Ryd( 3d)     0.00029       2.13062
  82    C  6  dyz    Ryd( 3d)     0.00036       2.17600
  83    C  6  dx2y2  Ryd( 3d)     0.00067       2.38651
  84    C  6  dz2    Ryd( 3d)     0.00065       2.31373

  85    N  7  s      Cor( 1s)     1.99946     -13.81877
  86    N  7  s      Val( 2s)     1.40717      -0.48199
  87    N  7  s      Ryd( 3s)     0.00093       1.06049
  88    N  7  px     Val( 2p)     1.36428      -0.15257
  89    N  7  px     Ryd( 3p)     0.00226       0.93605
  90    N  7  py     Val( 2p)     1.45941      -0.17140
  91    N  7  py     Ryd( 3p)     0.00330       0.84193
  92    N  7  pz     Val( 2p)     1.63451      -0.16108
  93    N  7  pz     Ryd( 3p)     0.00520       0.92247
  94    N  7  dxy    Ryd( 3d)     0.00035       2.40226
  95    N  7  dxz    Ryd( 3d)     0.00109       2.64745
  96    N  7  dyz    Ryd( 3d)     0.00101       2.41693
  97    N  7  dx2y2  Ryd( 3d)     0.00103       2.72914
  98    N  7  dz2    Ryd( 3d)     0.00125       2.52507

  99    H  8  s      Val( 1s)     0.77131       0.07221
 100    H  8  s      Ryd( 2s)     0.00148       0.33246
 101    H  8  px     Ryd( 2p)     0.00024       1.80005
 102    H  8  py     Ryd( 2p)     0.00024       1.79565
 103    H  8  pz     Ryd( 2p)     0.00059       2.13411

 104    H  9  s      Val( 1s)     0.77291       0.07811
 105    H  9  s      Ryd( 2s)     0.00359       0.33955
 106    H  9  px     Ryd( 2p)     0.00029       1.89172
 107    H  9  py     Ryd( 2p)     0.00020       1.76357
 108    H  9  pz     Ryd( 2p)     0.00056       2.08182

 109    H 10  s      Val( 1s)     0.78379       0.06662
 110    H 10  s      Ryd( 2s)     0.00196       0.34741
 111    H 10  px     Ryd( 2p)     0.00014       1.67309
 112    H 10  py     Ryd( 2p)     0.00085       2.29347
 113    H 10  pz     Ryd( 2p)     0.00017       1.72356

 114    H 11  s      Val( 1s)     0.78571       0.07537
 115    H 11  s      Ryd( 2s)     0.00274       0.34699
 116    H 11  px     Ryd( 2p)     0.00011       1.76138
 117    H 11  py     Ryd( 2p)     0.00097       2.27349
 118    H 11  pz     Ryd( 2p)     0.00009       1.70929

 119    H 12  s      Val( 1s)     0.81172       0.06379
 120    H 12  s      Ryd( 2s)     0.00543       0.35410
 121    H 12  px     Ryd( 2p)     0.00033       1.89469
 122    H 12  py     Ryd( 2p)     0.00018       1.78197
 123    H 12  pz     Ryd( 2p)     0.00058       2.08525

 124    H 13  s      Val( 1s)     0.62897       0.09201
 125    H 13  s      Ryd( 2s)     0.00541       0.49011
 126    H 13  px     Ryd( 2p)     0.00042       1.78250
 127    H 13  py     Ryd( 2p)     0.00140       2.37848
 128    H 13  pz     Ryd( 2p)     0.00059       1.74387

 129    H 14  s      Val( 1s)     0.78223       0.07134
 130    H 14  s      Ryd( 2s)     0.00214       0.37406
 131    H 14  px     Ryd( 2p)     0.00009       1.75435
 132    H 14  py     Ryd( 2p)     0.00093       2.26701
 133    H 14  pz     Ryd( 2p)     0.00013       1.77591

 134    H 15  s      Val( 1s)     0.79925       0.07540
 135    H 15  s      Ryd( 2s)     0.00537       0.35259
 136    H 15  px     Ryd( 2p)     0.00032       1.95483
 137    H 15  py     Ryd( 2p)     0.00032       1.91805
 138    H 15  pz     Ryd( 2p)     0.00041       2.02912

 139    H 16  s      Val( 1s)     0.77087       0.08633
 140    H 16  s      Ryd( 2s)     0.00311       0.32855
 141    H 16  px     Ryd( 2p)     0.00107       2.24098
 142    H 16  py     Ryd( 2p)     0.00008       1.75526
 143    H 16  pz     Ryd( 2p)     0.00009       1.73946

 144    H 17  s      Val( 1s)     0.76897       0.08210
 145    H 17  s      Ryd( 2s)     0.00419       0.37542
 146    H 17  px     Ryd( 2p)     0.00091       2.30888
 147    H 17  py     Ryd( 2p)     0.00012       1.72082
 148    H 17  pz     Ryd( 2p)     0.00016       1.72251

 149    H 18  s      Val( 1s)     0.77586       0.07123
 150    H 18  s      Ryd( 2s)     0.00218       0.34887
 151    H 18  px     Ryd( 2p)     0.00021       1.78299
 152    H 18  py     Ryd( 2p)     0.00073       2.23991
 153    H 18  pz     Ryd( 2p)     0.00017       1.75616

 154    H 19  s      Val( 1s)     0.77990       0.07099
 155    H 19  s      Ryd( 2s)     0.00252       0.33851
 156    H 19  px     Ryd( 2p)     0.00021       1.78749
 157    H 19  py     Ryd( 2p)     0.00016       1.75119
 158    H 19  pz     Ryd( 2p)     0.00071       2.22812

 159    H 20  s      Val( 1s)     0.63925       0.08439
 160    H 20  s      Ryd( 2s)     0.00319       0.42413
 161    H 20  px     Ryd( 2p)     0.00124       2.34195
 162    H 20  py     Ryd( 2p)     0.00050       1.73548
 163    H 20  pz     Ryd( 2p)     0.00081       1.77539

 164    H 21  s      Val( 1s)     0.63392       0.08811
 165    H 21  s      Ryd( 2s)     0.00233       0.38258
 166    H 21  px     Ryd( 2p)     0.00076       1.95277
 167    H 21  py     Ryd( 2p)     0.00062       1.81689
 168    H 21  pz     Ryd( 2p)     0.00110       2.12937


 Summary of Natural Population Analysis:

                                     Natural Population
             Natural    ---------------------------------------------
  Atom No    Charge        Core      Valence    Rydberg      Total
 --------------------------------------------------------------------
    C  1   -0.65558      1.99922     4.64899    0.00738     6.65558
    C  2   -0.21983      1.99918     4.20817    0.01248     6.21983
    N  3   -0.71900      1.99934     5.70364    0.01603     7.71900
    C  4   -0.23148      1.99910     4.21502    0.01737     6.23148
    C  5   -0.04757      1.99901     4.03040    0.01815     6.04757
    C  6   -0.67520      1.99916     4.66659    0.00944     6.67520
    N  7   -0.88125      1.99946     5.86537    0.01642     7.88125
    H  8    0.22613      0.00000     0.77131    0.00256     0.77387
    H  9    0.22245      0.00000     0.77291    0.00464     0.77755
    H 10    0.21311      0.00000     0.78379    0.00311     0.78689
    H 11    0.21037      0.00000     0.78571    0.00392     0.78963
    H 12    0.18176      0.00000     0.81172    0.00652     0.81824
    H 13    0.36320      0.00000     0.62897    0.00783     0.63680
    H 14    0.21449      0.00000     0.78223    0.00329     0.78551
    H 15    0.19433      0.00000     0.79925    0.00642     0.80567
    H 16    0.22478      0.00000     0.77087    0.00434     0.77522
    H 17    0.22564      0.00000     0.76897    0.00539     0.77436
    H 18    0.22086      0.00000     0.77586    0.00328     0.77914
    H 19    0.21650      0.00000     0.77990    0.00360     0.78350
    H 20    0.35501      0.00000     0.63925    0.00574     0.64499
    H 21    0.36127      0.00000     0.63392    0.00481     0.63873
 ====================================================================
 * Total *  0.00000     13.99446    43.84284    0.16270    58.00000

                                 Natural Population
 ---------------------------------------------------------
   Core                      13.99446 ( 99.9604% of   14)
   Valence                   43.84284 ( 99.6428% of   44)
   Natural Minimal Basis     57.83730 ( 99.7195% of   58)
   Natural Rydberg Basis      0.16270 (  0.2805% of   58)
 ---------------------------------------------------------

    Atom No         Natural Electron Configuration
 ----------------------------------------------------------------------------
      C  1      [core]2s( 1.09)2p( 3.56)
      C  2      [core]2s( 0.99)2p( 3.21)3p( 0.01)
      N  3      [core]2s( 1.33)2p( 4.38)3p( 0.01)
      C  4      [core]2s( 0.99)2p( 3.23)3p( 0.01)
      C  5      [core]2s( 0.92)2p( 3.11)3p( 0.01)3d( 0.01)
      C  6      [core]2s( 1.09)2p( 3.57)3p( 0.01)
      N  7      [core]2s( 1.41)2p( 4.46)3p( 0.01)
      H  8            1s( 0.77)
      H  9            1s( 0.77)
      H 10            1s( 0.78)
      H 11            1s( 0.79)
      H 12            1s( 0.81)2s( 0.01)
      H 13            1s( 0.63)2s( 0.01)
      H 14            1s( 0.78)
      H 15            1s( 0.80)2s( 0.01)
      H 16            1s( 0.77)
      H 17            1s( 0.77)
      H 18            1s( 0.78)
      H 19            1s( 0.78)
      H 20            1s( 0.64)
      H 21            1s( 0.63)


 NATURAL BOND ORBITAL ANALYSIS:

                            Occupancies       Lewis Structure    Low   High
         Max    Occ     -------------------  -----------------   occ   occ
  Cycle  Ctr   Thresh    Lewis   non-Lewis     CR  BD  nC  LP    (L)   (NL)
 ============================================================================
    1     2     1.90    57.50882   0.49118      7  20   0   2     0      0
 ----------------------------------------------------------------------------

 Structure accepted: No low occupancy Lewis orbitals

 -------------------------------------------------------
   Core                     13.99446 ( 99.960% of  14)
   Valence Lewis            43.51436 ( 98.896% of  44)
  ==================      =============================
   Total Lewis              57.50882 ( 99.153% of  58)
  -----------------------------------------------------
   Valence non-Lewis         0.37625 (  0.649% of  58)
   Rydberg non-Lewis         0.11493 (  0.198% of  58)
  ==================      =============================
   Total non-Lewis           0.49118 (  0.847% of  58)
 -------------------------------------------------------


     (Occupancy)   Bond orbital / Coefficients / Hybrids
 ------------------ Lewis ------------------------------------------------------
   1. (1.99922) CR ( 1) C  1            s(100.00%)
                                         1.0000  0.0000  0.0000  0.0000  0.0000
                                         0.0000  0.0000  0.0000  0.0000  0.0000
                                         0.0000  0.0000  0.0000  0.0000
   2. (1.99918) CR ( 1) C  2            s(100.00%)
                                         1.0000  0.0000  0.0000  0.0000  0.0000
                                         0.0000  0.0000  0.0000  0.0000  0.0000
                                         0.0000  0.0000  0.0000  0.0000
   3. (1.99934) CR ( 1) N  3            s(100.00%)
                                         1.0000  0.0000  0.0000  0.0000  0.0000
                                         0.0000  0.0000  0.0000  0.0000  0.0000
                                         0.0000  0.0000  0.0000  0.0000
   4. (1.99910) CR ( 1) C  4            s(100.00%)
                                         1.0000  0.0000  0.0000  0.0000  0.0000
                                         0.0000  0.0000  0.0000  0.0000  0.0000
                                         0.0000  0.0000  0.0000  0.0000
   5. (1.99901) CR ( 1) C  5            s(100.00%)
                                         1.0000  0.0000  0.0000  0.0000  0.0000
                                         0.0000  0.0000  0.0000  0.0000  0.0000
                                         0.0000  0.0000  0.0000  0.0000
   6. (1.99916) CR ( 1) C  6            s(100.00%)
                                         1.0000  0.0000  0.0000  0.0000  0.0000
                                         0.0000  0.0000  0.0000  0.0000  0.0000
                                         0.0000  0.0000  0.0000  0.0000
   7. (1.99946) CR ( 1) N  7            s(100.00%)
                                         1.0000  0.0000  0.0000  0.0000  0.0000
                                         0.0000  0.0000  0.0000  0.0000  0.0000
                                         0.0000  0.0000  0.0000  0.0000
   8. (1.90725) LP ( 1) N  3            s( 16.11%)p 5.20( 83.84%)d 0.00(  0.05%)
                                         0.0000  0.4012 -0.0104 -0.4727 -0.0121
                                         0.3254  0.0115  0.7128  0.0253  0.0074
                                         0.0159 -0.0112 -0.0018 -0.0085
   9. (1.94785) LP ( 1) N  7            s( 18.92%)p 4.28( 81.02%)d 0.00(  0.06%)
                                         0.0000  0.4349 -0.0075  0.1513  0.0059
                                        -0.5574 -0.0192 -0.6892 -0.0353  0.0045
                                         0.0065 -0.0200  0.0075 -0.0105
  10. (1.98723) BD ( 1) C  1- C  2
               ( 49.84%)   0.7060* C  1 s( 30.19%)p 2.31( 69.78%)d 0.00(  0.04%)
                                         0.0000  0.5494  0.0077  0.7910  0.0041
                                         0.2582  0.0049  0.0731 -0.0061  0.0087
                                         0.0030  0.0007  0.0135 -0.0093
               ( 50.16%)   0.7082* C  2 s( 28.98%)p 2.45( 70.98%)d 0.00(  0.04%)
                                         0.0000  0.5380  0.0181 -0.7969  0.0033
                                        -0.2619  0.0062 -0.0779 -0.0063  0.0112
                                         0.0011  0.0001  0.0127 -0.0100
  11. (1.98510) BD ( 1) C  1- H  8
               ( 61.28%)   0.7828* C  1 s( 23.28%)p 3.29( 76.68%)d 0.00(  0.04%)
                                         0.0000  0.4825  0.0013 -0.3693 -0.0084
                                         0.3124 -0.0066 -0.7298  0.0060 -0.0043
                                         0.0106 -0.0107 -0.0001  0.0115
               ( 38.72%)   0.6222* H  8 s( 99.91%)p 0.00(  0.09%)
                                         0.9995 -0.0005  0.0137 -0.0103  0.0252
  12. (1.98732) BD ( 1) C  1- H  9
               ( 61.41%)   0.7836* C  1 s( 23.48%)p 3.26( 76.48%)d 0.00(  0.04%)
                                         0.0000  0.4846 -0.0034 -0.4850 -0.0093
                                         0.2632 -0.0053  0.6784 -0.0070 -0.0054
                                        -0.0134  0.0081  0.0033  0.0085
               ( 38.59%)   0.6212* H  9 s( 99.91%)p 0.00(  0.09%)
                                         0.9995 -0.0038  0.0165 -0.0089 -0.0243
  13. (1.98691) BD ( 1) C  1- H 10
               ( 60.83%)   0.7799* C  1 s( 23.03%)p 3.34( 76.93%)d 0.00(  0.04%)
                                         0.0000  0.4799 -0.0043 -0.0442 -0.0154
                                        -0.8751  0.0023 -0.0350 -0.0043  0.0000
                                         0.0005  0.0014 -0.0162 -0.0096
               ( 39.17%)   0.6258* H 10 s( 99.90%)p 0.00(  0.10%)
                                         0.9995 -0.0023  0.0034  0.0316  0.0016
  14. (1.98483) BD ( 1) C  2- N  3
               ( 39.08%)   0.6251* C  2 s( 24.41%)p 3.09( 75.48%)d 0.00(  0.11%)
                                         0.0000  0.4937  0.0175  0.3617 -0.0023
                                        -0.3037 -0.0086  0.7286  0.0280 -0.0073
                                         0.0196 -0.0181  0.0009  0.0190
               ( 60.92%)   0.7805* N  3 s( 31.49%)p 2.17( 68.45%)d 0.00(  0.06%)
                                         0.0000  0.5611  0.0068 -0.3641  0.0137
                                         0.2837 -0.0070 -0.6865 -0.0009  0.0038
                                         0.0113 -0.0097 -0.0020  0.0202
  15. (1.97586) BD ( 1) C  2- H 11
               ( 60.89%)   0.7803* C  2 s( 22.93%)p 3.36( 77.04%)d 0.00(  0.04%)
                                         0.0000  0.4787 -0.0098  0.0323 -0.0025
                                         0.8766 -0.0090  0.0258 -0.0081  0.0008
                                        -0.0001  0.0022 -0.0159 -0.0106
               ( 39.11%)   0.6254* H 11 s( 99.88%)p 0.00(  0.12%)
                                         0.9994 -0.0053 -0.0004 -0.0341 -0.0003
  16. (1.98485) BD ( 1) C  2- H 12
               ( 60.25%)   0.7762* C  2 s( 23.77%)p 3.21( 76.19%)d 0.00(  0.04%)
                                         0.0000  0.4873 -0.0166  0.4815 -0.0076
                                        -0.2638  0.0119 -0.6784  0.0004 -0.0047
                                        -0.0145  0.0090  0.0031  0.0090
               ( 39.75%)   0.6304* H 12 s( 99.90%)p 0.00(  0.10%)
                                         0.9994 -0.0117 -0.0162  0.0078  0.0262
  17. (1.98469) BD ( 1) N  3- C  4
               ( 60.87%)   0.7802* N  3 s( 31.25%)p 2.20( 68.69%)d 0.00(  0.06%)
                                         0.0000  0.5590  0.0051  0.7944 -0.0059
                                         0.2037 -0.0052  0.1193 -0.0063  0.0045
                                        -0.0035 -0.0063  0.0186 -0.0149
               ( 39.13%)   0.6256* C  4 s( 24.04%)p 3.15( 75.85%)d 0.00(  0.11%)
                                         0.0000  0.4900  0.0184 -0.8376 -0.0284
                                        -0.2164 -0.0078 -0.0957  0.0031  0.0134
                                         0.0051  0.0000  0.0255 -0.0165
  18. (1.97879) BD ( 1) N  3- H 13
               ( 68.97%)   0.8305* N  3 s( 21.13%)p 3.73( 78.79%)d 0.00(  0.08%)
                                         0.0000  0.4597  0.0031 -0.1085  0.0129
                                        -0.8776  0.0248  0.0702 -0.0151 -0.0042
                                         0.0042  0.0094 -0.0216 -0.0134
               ( 31.03%)   0.5570* H 13 s( 99.79%)p 0.00(  0.21%)
                                         0.9989 -0.0112  0.0054  0.0455 -0.0063
  19. (1.97153) BD ( 1) C  4- C  5
               ( 49.90%)   0.7064* C  4 s( 29.37%)p 2.40( 70.59%)d 0.00(  0.04%)
                                         0.0000  0.5419  0.0072  0.2721  0.0108
                                        -0.1718  0.0014  0.7758 -0.0186 -0.0008
                                         0.0079 -0.0074  0.0001  0.0162
               ( 50.10%)   0.7078* C  5 s( 27.41%)p 2.65( 72.55%)d 0.00(  0.04%)
                                         0.0000  0.5235 -0.0001 -0.2874  0.0226
                                         0.1675 -0.0044 -0.7838 -0.0038 -0.0016
                                         0.0115 -0.0046  0.0017  0.0145
  20. (1.97624) BD ( 1) C  4- H 14
               ( 60.92%)   0.7805* C  4 s( 22.81%)p 3.38( 77.15%)d 0.00(  0.04%)
                                         0.0000  0.4776 -0.0086  0.0762  0.0117
                                         0.8581 -0.0082 -0.1705 -0.0083  0.0015
                                         0.0005 -0.0051 -0.0170 -0.0086
               ( 39.08%)   0.6251* H 14 s( 99.89%)p 0.00(  0.11%)
                                         0.9994 -0.0035 -0.0049 -0.0330  0.0057
  21. (1.98477) BD ( 1) C  4- H 15
               ( 60.74%)   0.7794* C  4 s( 23.81%)p 3.20( 76.15%)d 0.00(  0.04%)
                                         0.0000  0.4879 -0.0068  0.4648  0.0011
                                        -0.4316  0.0122 -0.5992  0.0027 -0.0097
                                        -0.0132  0.0106  0.0006  0.0034
               ( 39.26%)   0.6266* H 15 s( 99.90%)p 0.00(  0.10%)
                                         0.9994 -0.0102 -0.0189  0.0156  0.0204
  22. (1.98471) BD ( 1) C  5- C  6
               ( 49.93%)   0.7066* C  5 s( 28.53%)p 2.50( 71.43%)d 0.00(  0.04%)
                                         0.0000  0.5341 -0.0006 -0.3051  0.0182
                                         0.5306  0.0031  0.5825  0.0103 -0.0081
                                        -0.0078  0.0143 -0.0046  0.0036
               ( 50.07%)   0.7076* C  6 s( 30.46%)p 2.28( 69.51%)d 0.00(  0.03%)
                                         0.0000  0.5519 -0.0001  0.3015  0.0065
                                        -0.5425 -0.0039 -0.5565  0.0107 -0.0077
                                        -0.0074  0.0139 -0.0052  0.0027
  23. (1.98698) BD ( 1) C  5- N  7
               ( 39.79%)   0.6308* C  5 s( 22.55%)p 3.43( 77.34%)d 0.00(  0.11%)
                                         0.0000  0.4744  0.0203 -0.2013  0.0135
                                        -0.8282 -0.0325  0.2139  0.0054  0.0123
                                        -0.0024 -0.0120 -0.0237 -0.0138
               ( 60.21%)   0.7760* N  7 s( 34.91%)p 1.86( 65.03%)d 0.00(  0.06%)
                                         0.0000  0.5909 -0.0021  0.1885 -0.0086
                                         0.7583  0.0016 -0.1990  0.0010  0.0051
                                         0.0049 -0.0017 -0.0168 -0.0169
  24. (1.96369) BD ( 1) C  5- H 16
               ( 61.44%)   0.7838* C  5 s( 21.47%)p 3.66( 78.49%)d 0.00(  0.04%)
                                         0.0000  0.4632 -0.0121  0.8844 -0.0160
                                         0.0486 -0.0079 -0.0051  0.0026  0.0008
                                        -0.0010 -0.0003  0.0165 -0.0090
               ( 38.56%)   0.6210* H 16 s( 99.87%)p 0.00(  0.13%)
                                         0.9993 -0.0050 -0.0360 -0.0029  0.0018
  25. (1.98650) BD ( 1) C  6- H 17
               ( 61.60%)   0.7849* C  6 s( 23.32%)p 3.29( 76.65%)d 0.00(  0.03%)
                                         0.0000  0.4829 -0.0030 -0.8753 -0.0003
                                         0.0005  0.0122  0.0040  0.0112  0.0009
                                         0.0007  0.0002  0.0158 -0.0093
               ( 38.40%)   0.6196* H 17 s( 99.89%)p 0.00(  0.11%)
                                         0.9994 -0.0043  0.0333 -0.0004  0.0016
  26. (1.98494) BD ( 1) C  6- H 18
               ( 61.18%)   0.7822* C  6 s( 23.19%)p 3.31( 76.77%)d 0.00(  0.04%)
                                         0.0000  0.4816  0.0018  0.2654 -0.0047
                                         0.8164  0.0054 -0.1745  0.0142  0.0101
                                        -0.0024 -0.0069 -0.0127 -0.0079
               ( 38.82%)   0.6231* H 18 s( 99.90%)p 0.00(  0.10%)
                                         0.9995 -0.0022 -0.0085 -0.0294  0.0052
  27. (1.98650) BD ( 1) C  6- H 19
               ( 60.92%)   0.7805* C  6 s( 22.98%)p 3.35( 76.98%)d 0.00(  0.04%)
                                         0.0000  0.4794  0.0032  0.2682 -0.0066
                                        -0.1964  0.0134  0.8118  0.0030 -0.0028
                                         0.0103 -0.0076  0.0002  0.0146
               ( 39.08%)   0.6252* H 19 s( 99.91%)p 0.00(  0.09%)
                                         0.9995 -0.0009 -0.0087  0.0057 -0.0288
  28. (1.98971) BD ( 1) N  7- H 20
               ( 68.23%)   0.8260* N  7 s( 23.07%)p 3.33( 76.85%)d 0.00(  0.08%)
                                         0.0000  0.4803  0.0052 -0.8442  0.0272
                                        -0.1096  0.0248  0.2062 -0.0037 -0.0075
                                        -0.0193 -0.0029  0.0183 -0.0052
               ( 31.77%)   0.5636* H 20 s( 99.81%)p 0.00(  0.19%)
                                         0.9990 -0.0056  0.0430  0.0059 -0.0076
  29. (1.98811) BD ( 1) N  7- H 21
               ( 68.31%)   0.8265* N  7 s( 23.00%)p 3.34( 76.91%)d 0.00(  0.09%)
                                         0.0000  0.4795  0.0091  0.4763 -0.0122
                                        -0.3175  0.0286  0.6636 -0.0118  0.0025
                                         0.0181 -0.0070  0.0062  0.0210
               ( 31.69%)   0.5630* H 21 s( 99.82%)p 0.00(  0.18%)
                                         0.9991 -0.0028 -0.0255  0.0164 -0.0290
 ---------------- non-Lewis ----------------------------------------------------
  30. (0.00961) BD*( 1) C  1- C  2
               ( 50.16%)   0.7082* C  1 s( 30.19%)p 2.31( 69.78%)d 0.00(  0.04%)
                                         0.0000  0.5494  0.0077  0.7910  0.0041
                                         0.2582  0.0049  0.0731 -0.0061  0.0087
                                         0.0030  0.0007  0.0135 -0.0093
               ( 49.84%)  -0.7060* C  2 s( 28.98%)p 2.45( 70.98%)d 0.00(  0.04%)
                                         0.0000  0.5380  0.0181 -0.7969  0.0033
                                        -0.2619  0.0062 -0.0779 -0.0063  0.0112
                                         0.0011  0.0001  0.0127 -0.0100
  31. (0.00561) BD*( 1) C  1- H  8
               ( 38.72%)   0.6222* C  1 s( 23.28%)p 3.29( 76.68%)d 0.00(  0.04%)
                                         0.0000 -0.4825 -0.0013  0.3693  0.0084
                                        -0.3124  0.0066  0.7298 -0.0060  0.0043
                                        -0.0106  0.0107  0.0001 -0.0115
               ( 61.28%)  -0.7828* H  8 s( 99.91%)p 0.00(  0.09%)
                                        -0.9995  0.0005 -0.0137  0.0103 -0.0252
  32. (0.01097) BD*( 1) C  1- H  9
               ( 38.59%)   0.6212* C  1 s( 23.48%)p 3.26( 76.48%)d 0.00(  0.04%)
                                         0.0000 -0.4846  0.0034  0.4850  0.0093
                                        -0.2632  0.0053 -0.6784  0.0070  0.0054
                                         0.0134 -0.0081 -0.0033 -0.0085
               ( 61.41%)  -0.7836* H  9 s( 99.91%)p 0.00(  0.09%)
                                        -0.9995  0.0038 -0.0165  0.0089  0.0243
  33. (0.01041) BD*( 1) C  1- H 10
               ( 39.17%)   0.6258* C  1 s( 23.03%)p 3.34( 76.93%)d 0.00(  0.04%)
                                         0.0000 -0.4799  0.0043  0.0442  0.0154
                                         0.8751 -0.0023  0.0350  0.0043  0.0000
                                        -0.0005 -0.0014  0.0162  0.0096
               ( 60.83%)  -0.7799* H 10 s( 99.90%)p 0.00(  0.10%)
                                        -0.9995  0.0023 -0.0034 -0.0316 -0.0016
  34. (0.01878) BD*( 1) C  2- N  3
               ( 60.92%)   0.7805* C  2 s( 24.41%)p 3.09( 75.48%)d 0.00(  0.11%)
                                         0.0000  0.4937  0.0175  0.3617 -0.0023
                                        -0.3037 -0.0086  0.7286  0.0280 -0.0073
                                         0.0196 -0.0181  0.0009  0.0190
               ( 39.08%)  -0.6251* N  3 s( 31.49%)p 2.17( 68.45%)d 0.00(  0.06%)
                                         0.0000  0.5611  0.0068 -0.3641  0.0137
                                         0.2837 -0.0070 -0.6865 -0.0009  0.0038
                                         0.0113 -0.0097 -0.0020  0.0202
  35. (0.02266) BD*( 1) C  2- H 11
               ( 39.11%)   0.6254* C  2 s( 22.93%)p 3.36( 77.04%)d 0.00(  0.04%)
                                         0.0000 -0.4787  0.0098 -0.0323  0.0025
                                        -0.8766  0.0090 -0.0258  0.0081 -0.0008
                                         0.0001 -0.0022  0.0159  0.0106
               ( 60.89%)  -0.7803* H 11 s( 99.88%)p 0.00(  0.12%)
                                        -0.9994  0.0053  0.0004  0.0341  0.0003
  36. (0.03907) BD*( 1) C  2- H 12
               ( 39.75%)   0.6304* C  2 s( 23.77%)p 3.21( 76.19%)d 0.00(  0.04%)
                                         0.0000 -0.4873  0.0166 -0.4815  0.0076
                                         0.2638 -0.0119  0.6784 -0.0004  0.0047
                                         0.0145 -0.0090 -0.0031 -0.0090
               ( 60.25%)  -0.7762* H 12 s( 99.90%)p 0.00(  0.10%)
                                        -0.9994  0.0117  0.0162 -0.0078 -0.0262
  37. (0.01816) BD*( 1) N  3- C  4
               ( 39.13%)   0.6256* N  3 s( 31.25%)p 2.20( 68.69%)d 0.00(  0.06%)
                                         0.0000 -0.5590 -0.0051 -0.7944  0.0059
                                        -0.2037  0.0052 -0.1193  0.0063 -0.0045
                                         0.0035  0.0063 -0.0186  0.0149
               ( 60.87%)  -0.7802* C  4 s( 24.04%)p 3.15( 75.85%)d 0.00(  0.11%)
                                         0.0000 -0.4900 -0.0184  0.8376  0.0284
                                         0.2164  0.0078  0.0957 -0.0031 -0.0134
                                        -0.0051  0.0000 -0.0255  0.0165
  38. (0.02354) BD*( 1) N  3- H 13
               ( 31.03%)   0.5570* N  3 s( 21.13%)p 3.73( 78.79%)d 0.00(  0.08%)
                                         0.0000 -0.4597 -0.0031  0.1085 -0.0129
                                         0.8776 -0.0248 -0.0702  0.0151  0.0042
                                        -0.0042 -0.0094  0.0216  0.0134
               ( 68.97%)  -0.8305* H 13 s( 99.79%)p 0.00(  0.21%)
                                        -0.9989  0.0112 -0.0054 -0.0455  0.0063
  39. (0.03471) BD*( 1) C  4- C  5
               ( 50.10%)   0.7078* C  4 s( 29.37%)p 2.40( 70.59%)d 0.00(  0.04%)
                                         0.0000  0.5419  0.0072  0.2721  0.0108
                                        -0.1718  0.0014  0.7758 -0.0186 -0.0008
                                         0.0079 -0.0074  0.0001  0.0162
               ( 49.90%)  -0.7064* C  5 s( 27.41%)p 2.65( 72.55%)d 0.00(  0.04%)
                                         0.0000  0.5235 -0.0001 -0.2874  0.0226
                                         0.1675 -0.0044 -0.7838 -0.0038 -0.0016
                                         0.0115 -0.0046  0.0017  0.0145
  40. (0.01774) BD*( 1) C  4- H 14
               ( 39.08%)   0.6251* C  4 s( 22.81%)p 3.38( 77.15%)d 0.00(  0.04%)
                                         0.0000 -0.4776  0.0086 -0.0762 -0.0117
                                        -0.8581  0.0082  0.1705  0.0083 -0.0015
                                        -0.0005  0.0051  0.0170  0.0086
               ( 60.92%)  -0.7805* H 14 s( 99.89%)p 0.00(  0.11%)
                                        -0.9994  0.0035  0.0049  0.0330 -0.0057
  41. (0.03428) BD*( 1) C  4- H 15
               ( 39.26%)   0.6266* C  4 s( 23.81%)p 3.20( 76.15%)d 0.00(  0.04%)
                                         0.0000 -0.4879  0.0068 -0.4648 -0.0011
                                         0.4316 -0.0122  0.5992 -0.0027  0.0097
                                         0.0132 -0.0106 -0.0006 -0.0034
               ( 60.74%)  -0.7794* H 15 s( 99.90%)p 0.00(  0.10%)
                                        -0.9994  0.0102  0.0189 -0.0156 -0.0204
  42. (0.03290) BD*( 1) C  5- C  6
               ( 50.07%)   0.7076* C  5 s( 28.53%)p 2.50( 71.43%)d 0.00(  0.04%)
                                         0.0000 -0.5341  0.0006  0.3051 -0.0182
                                        -0.5306 -0.0031 -0.5825 -0.0103  0.0081
                                         0.0078 -0.0143  0.0046 -0.0036
               ( 49.93%)  -0.7066* C  6 s( 30.46%)p 2.28( 69.51%)d 0.00(  0.03%)
                                         0.0000 -0.5519  0.0001 -0.3015 -0.0065
                                         0.5425  0.0039  0.5565 -0.0107  0.0077
                                         0.0074 -0.0139  0.0052 -0.0027
  43. (0.02612) BD*( 1) C  5- N  7
               ( 60.21%)   0.7760* C  5 s( 22.55%)p 3.43( 77.34%)d 0.00(  0.11%)
                                         0.0000 -0.4744 -0.0203  0.2013 -0.0135
                                         0.8282  0.0325 -0.2139 -0.0054 -0.0123
                                         0.0024  0.0120  0.0237  0.0138
               ( 39.79%)  -0.6308* N  7 s( 34.91%)p 1.86( 65.03%)d 0.00(  0.06%)
                                         0.0000 -0.5909  0.0021 -0.1885  0.0086
                                        -0.7583 -0.0016  0.1990 -0.0010 -0.0051
                                        -0.0049  0.0017  0.0168  0.0169
  44. (0.02386) BD*( 1) C  5- H 16
               ( 38.56%)   0.6210* C  5 s( 21.47%)p 3.66( 78.49%)d 0.00(  0.04%)
                                         0.0000 -0.4632  0.0121 -0.8844  0.0160
                                        -0.0486  0.0079  0.0051 -0.0026 -0.0008
                                         0.0010  0.0003 -0.0165  0.0090
               ( 61.44%)  -0.7838* H 16 s( 99.87%)p 0.00(  0.13%)
                                        -0.9993  0.0050  0.0360  0.0029 -0.0018
  45. (0.01151) BD*( 1) C  6- H 17
               ( 38.40%)   0.6196* C  6 s( 23.32%)p 3.29( 76.65%)d 0.00(  0.03%)
                                         0.0000 -0.4829  0.0030  0.8753  0.0003
                                        -0.0005 -0.0122 -0.0040 -0.0112 -0.0009
                                        -0.0007 -0.0002 -0.0158  0.0093
               ( 61.60%)  -0.7849* H 17 s( 99.89%)p 0.00(  0.11%)
                                        -0.9994  0.0043 -0.0333  0.0004 -0.0016
  46. (0.00980) BD*( 1) C  6- H 18
               ( 38.82%)   0.6231* C  6 s( 23.19%)p 3.31( 76.77%)d 0.00(  0.04%)
                                         0.0000 -0.4816 -0.0018 -0.2654  0.0047
                                        -0.8164 -0.0054  0.1745 -0.0142 -0.0101
                                         0.0024  0.0069  0.0127  0.0079
               ( 61.18%)  -0.7822* H 18 s( 99.90%)p 0.00(  0.10%)
                                        -0.9995  0.0022  0.0085  0.0294 -0.0052
  47. (0.00701) BD*( 1) C  6- H 19
               ( 39.08%)   0.6252* C  6 s( 22.98%)p 3.35( 76.98%)d 0.00(  0.04%)
                                         0.0000 -0.4794 -0.0032 -0.2682  0.0066
                                         0.1964 -0.0134 -0.8118 -0.0030  0.0028
                                        -0.0103  0.0076 -0.0002 -0.0146
               ( 60.92%)  -0.7805* H 19 s( 99.91%)p 0.00(  0.09%)
                                        -0.9995  0.0009  0.0087 -0.0057  0.0288
  48. (0.01227) BD*( 1) N  7- H 20
               ( 31.77%)   0.5636* N  7 s( 23.07%)p 3.33( 76.85%)d 0.00(  0.08%)
                                         0.0000 -0.4803 -0.0052  0.8442 -0.0272
                                         0.1096 -0.0248 -0.2062  0.0037  0.0075
                                         0.0193  0.0029 -0.0183  0.0052
               ( 68.23%)  -0.8260* H 20 s( 99.81%)p 0.00(  0.19%)
                                        -0.9990  0.0056 -0.0430 -0.0059  0.0076
  49. (0.00725) BD*( 1) N  7- H 21
               ( 31.69%)   0.5630* N  7 s( 23.00%)p 3.34( 76.91%)d 0.00(  0.09%)
                                         0.0000 -0.4795 -0.0091 -0.4763  0.0122
                                         0.3175 -0.0286 -0.6636  0.0118 -0.0025
                                        -0.0181  0.0070 -0.0062 -0.0210
               ( 68.31%)  -0.8265* H 21 s( 99.82%)p 0.00(  0.18%)
                                        -0.9991  0.0028  0.0255 -0.0164  0.0290
  50. (0.00294) RY ( 1) C  1            s(  5.49%)p16.27( 89.34%)d 0.94(  5.17%)
                                         0.0000  0.0080  0.2342  0.0010  0.3659
                                        -0.0101 -0.4613  0.0109  0.7393 -0.1115
                                         0.1813  0.0004  0.0668  0.0432
  51. (0.00143) RY ( 2) C  1            s(  0.11%)p99.99( 76.11%)d99.99( 23.78%)
                                         0.0000  0.0008  0.0333 -0.0028 -0.2680
                                         0.0098  0.6451  0.0093  0.5225  0.2618
                                         0.2826  0.0522 -0.2937 -0.0202
  52. (0.00036) RY ( 3) C  1            s( 12.22%)p 7.15( 87.35%)d 0.04(  0.43%)
                                         0.0000  0.0101  0.3494 -0.0176  0.7824
                                        -0.0070  0.4721 -0.0024 -0.1950  0.0348
                                        -0.0155 -0.0185  0.0312 -0.0394
  53. (0.00010) RY ( 4) C  1            s( 69.12%)p 0.19( 12.90%)d 0.26( 17.99%)
                                         0.0000 -0.0058  0.8313 -0.0021 -0.3509
                                         0.0005 -0.0736 -0.0018 -0.0195  0.1152
                                        -0.3602 -0.1552 -0.0462 -0.1031
  54. (0.00010) RY ( 5) C  1            s(  2.80%)p 3.52(  9.85%)d31.25( 87.36%)
  55. (0.00002) RY ( 6) C  1            s(  0.08%)p33.40(  2.54%)d99.99( 97.39%)
  56. (0.00001) RY ( 7) C  1            s(  3.11%)p 1.93(  5.99%)d29.26( 90.90%)
  57. (0.00000) RY ( 8) C  1            s(  5.08%)p 3.01( 15.32%)d15.66( 79.60%)
  58. (0.00000) RY ( 9) C  1            s(  2.01%)p 0.37(  0.74%)d48.31( 97.25%)
  59. (0.00330) RY ( 1) C  2            s( 27.59%)p 2.00( 55.16%)d 0.62( 17.24%)
                                         0.0000 -0.0001  0.5253  0.0201  0.7244
                                         0.0106  0.1616 -0.0142  0.0019 -0.0253
                                         0.2746  0.0957  0.2161 -0.2014
  60. (0.00247) RY ( 2) C  2            s(  0.17%)p99.99( 84.36%)d88.61( 15.47%)
                                         0.0000 -0.0061  0.0413 -0.0115 -0.1557
                                         0.0235  0.5858 -0.0016  0.6895 -0.0586
                                        -0.1284  0.1127  0.2793  0.2099
  61. (0.00115) RY ( 3) C  2            s(  5.74%)p 3.39( 19.49%)d13.02( 74.77%)
                                         0.0000 -0.0028  0.2396  0.0067 -0.4317
                                        -0.0007  0.0906 -0.0091  0.0144 -0.4507
                                         0.1657 -0.3300  0.0889 -0.6327
  62. (0.00078) RY ( 4) C  2            s(  2.91%)p17.21( 50.14%)d16.11( 46.95%)
                                         0.0000 -0.0013  0.1707  0.0007 -0.2839
                                         0.0098  0.3377  0.0021 -0.5537 -0.1665
                                         0.3816  0.0887  0.2068  0.4955
  63. (0.00049) RY ( 5) C  2            s( 19.11%)p 2.60( 49.73%)d 1.63( 31.16%)
                                         0.0000 -0.0080  0.4371 -0.0037 -0.2931
                                         0.0086 -0.5029 -0.0353  0.3964  0.2121
                                         0.4526  0.0806 -0.0950  0.2151
  64. (0.00024) RY ( 6) C  2            s( 35.33%)p 0.29( 10.28%)d 1.54( 54.39%)
                                         0.0000 -0.0004  0.5944  0.0168 -0.2282
                                         0.0042 -0.0284  0.0112 -0.2224  0.2752
                                        -0.6613  0.1118  0.1303 -0.0375
  65. (0.00017) RY ( 7) C  2            s(  3.97%)p 2.51(  9.96%)d21.70( 86.07%)
                                         0.0000 -0.0029  0.1991 -0.0155  0.2140
                                         0.0101 -0.2089 -0.0196  0.0972 -0.5296
                                        -0.2731 -0.5265 -0.0906  0.4694
  66. (0.00005) RY ( 8) C  2            s(  3.79%)p 5.57( 21.10%)d19.84( 75.11%)
  67. (0.00001) RY ( 9) C  2            s(  1.30%)p 0.08(  0.10%)d76.00( 98.60%)
  68. (0.00513) RY ( 1) N  3            s( 27.91%)p 2.44( 67.98%)d 0.15(  4.11%)
                                         0.0000 -0.0049  0.5283 -0.0123  0.3774
                                         0.0141 -0.2946  0.0257 -0.6705 -0.0030
                                         0.1840 -0.0041 -0.0134 -0.0839
  69. (0.00157) RY ( 2) N  3            s(  2.70%)p32.93( 88.86%)d 3.13(  8.44%)
                                         0.0000 -0.0061  0.1642  0.0058  0.7754
                                         0.0020  0.1596  0.0009  0.5118  0.0247
                                         0.0019  0.0952  0.2176 -0.1654
[...]
                  --------  --------  --------  --------  --------  --------
  1 C                 0.0      -0.1      -0.1      -0.0      -0.0      -0.6
  2 N                -0.2      -1.8      -1.7      -0.3      -0.1      -1.5
  3 C               107.2     -14.0     -13.6      -4.2      -3.3     -40.9
  4 C                -0.6     159.1     164.1     132.8     144.1     176.2
  5 C                 0.1     -15.1     -23.6      -9.0     -26.0     -21.5
  6 N                -0.1     -18.3      -8.8     -15.5      -8.7      -5.3
 12 H                -0.0       0.3      -0.1      -0.0      -0.0       0.1
 13 H                -2.2      -0.1      -0.2      -0.2      -0.0       0.3
 14 H                -4.2      -0.3       0.5      -0.0       0.1       0.7
 15 H                -0.0      -7.7     -16.0      -2.6      -4.1      -7.7
 16 H                 0.0      -0.3       0.2      -0.1       0.0       0.2
 17 H                -0.0       0.3      -0.4       0.2       0.1      -0.0
 18 H                -0.0      -0.1       0.1       0.2      -0.1      -0.1
 19 H                -0.0      -1.5      -0.1      -0.2      -0.2       0.0
 20 H                 0.0      -0.4      -0.1      -1.1      -1.7       0.0

                     90        91        92        93        94        95   
                   0.00000   0.00000   0.00000   0.00000   0.00000   0.00000
                   0.00074   0.00043   0.00014   0.00005   0.00363   0.00208
                  --------  --------  --------  --------  --------  --------
  1 C                -0.3      -0.1      -0.3      -0.1      -0.0      -0.0
  2 N                -0.7       0.0       0.0       0.3       0.4      -0.0
  3 C               -26.4      -4.7     -23.7      -3.5      -8.7      -0.1
  4 C               145.8     109.3     143.9     129.1     -15.8     -16.0
  5 C                -8.3      -3.0      -9.0      -6.6     148.4     141.1
  6 N                -6.8       0.5      -4.8      -7.2      -0.2      -0.1
 13 H                 1.0       0.1       0.2      -0.0      -0.4       0.0
 14 H                -0.4       0.1       0.0       0.0      -0.3      -0.0
 15 H                -3.7      -1.9      -5.8     -12.1      -0.1      -0.2
 16 H                 0.2       0.0      -0.1       0.0      -7.4     -12.2
 17 H                 0.0      -0.1       0.1      -0.0      -7.6      -9.2
 18 H                 0.0      -0.0       0.2       0.2      -8.2      -2.5
 19 H                -0.3      -0.3      -0.7      -0.1      -0.0      -0.8
 20 H                -0.2       0.0       0.1      -0.2      -0.0       0.0

                     96        97        98        99       100       101   
                   0.00000   0.00000   0.00000   0.00000   0.00000   0.00000
                   0.00064   0.00019   0.00015   0.00003   0.00001   0.00001
                  --------  --------  --------  --------  --------  --------
  2 N                 0.1      -0.2      -0.1       0.0       0.0      -0.0
  3 C                -0.8      -0.1      -0.3      -0.2      -0.0       0.0
  4 C               -69.0      -4.9      -1.4      -7.2      -2.3      -0.1
  5 C               180.2     146.9     126.6     118.3     110.2     112.0
  6 N                 0.9      -0.1       0.4      -0.0      -0.2      -0.0
 13 H                -0.2      -0.0      -0.0       0.0      -0.0      -0.0
 14 H                -0.1      -0.0      -0.0      -0.0      -0.0      -0.0
 15 H                 0.4       0.0      -0.3       0.3       0.2      -0.0
 16 H                -0.0     -16.5      -6.3      -1.6      -1.7      -7.1
 17 H                -3.6     -11.7     -13.1      -0.6      -3.4      -2.0
 18 H                -7.5     -13.4      -5.4      -8.9      -2.7      -2.8
 19 H                -0.5       0.0       0.0      -0.0      -0.0      -0.0
 20 H                 0.1      -0.0       0.0      -0.0      -0.0      -0.0

                    102       103       104       105       106       107   
                   0.00000   0.00000   0.00000   0.00000   0.00000   0.00000
                   0.00000   0.00316   0.00135   0.00048   0.00012   0.00004
                  --------  --------  --------  --------  --------  --------
  2 N                -0.0       0.0       0.1      -0.4      -0.0       0.1
  3 C                -0.1      -0.5      -0.4       0.6       0.3      -0.4
  4 C                -0.8      -6.4     -13.2     -40.1      -5.2      -2.6
  5 C               108.8      -0.9       0.9       1.4      -0.3       0.0
  6 N                -0.0     111.8     124.1     145.7     120.6     108.6
 12 H                -0.0      -1.1      -0.6       0.0       0.0       0.0
 13 H                -0.0      -0.1      -0.2      -0.2      -0.0      -0.0
 14 H                 0.0      -0.0      -0.0      -0.1      -0.0       0.0
 15 H                -0.1      -0.1      -0.3       0.7       0.3      -0.0
 16 H                -2.0       0.0      -0.1      -0.1      -0.1      -0.0
 17 H                -2.7      -0.0      -0.1      -0.2       0.0      -0.0
 18 H                -3.0      -0.0      -0.0      -0.1      -0.0      -0.0
 19 H                -0.0      -0.9      -5.9      -1.2     -10.8      -2.5
 20 H                -0.0      -1.7      -4.1      -5.9      -4.8      -3.2

                    108       109       110       111       112       113   
                   0.00000   0.00000   0.00000   0.00000   0.00000   0.00000
                   0.00002   0.00001   0.00000   0.00000   0.00152   0.00016
                  --------  --------  --------  --------  --------  --------
  0 C                -0.0      -0.0      -0.0      -0.0     -34.3      -2.9
  1 C                -0.0      -0.0      -0.0      -0.0       0.6      -0.2
  2 N                 0.0       0.0       0.0      -0.0      -0.3      -0.0
  3 C                -0.0       0.0      -0.2      -0.1      -0.0      -0.0
  4 C                -1.7      -0.6      -1.1      -1.0      -0.0      -0.0
  6 N               105.6     106.0     107.2     107.4      -0.0      -0.0
  7 H                -0.0      -0.0      -0.0      -0.0     135.2     103.9
  8 H                 0.0       0.0      -0.0      -0.0      -0.3      -0.3
  9 H                -0.0      -0.0       0.0      -0.0      -0.2      -0.4
 10 H                -0.0      -0.0      -0.0      -0.0      -0.3      -0.1
 11 H                 0.0      -0.0      -0.0      -0.0      -0.4      -0.0
 19 H                -1.3      -1.7      -2.5      -4.4      -0.0      -0.0
 20 H                -2.5      -3.4      -3.2      -1.8       0.0      -0.0

                    114       115       116       117       118       119   
                   0.00000   0.00000   0.00000   0.00000   0.00000   0.00000
                   0.00012   0.00003   0.00362   0.00014   0.00012   0.00004
                  --------  --------  --------  --------  --------  --------
  0 C                -3.2      -8.0     -34.1      -3.0      -3.1      -8.1
  1 C                -0.1      -0.2       0.0      -0.1      -0.1      -0.1
  2 N                -0.1      -0.1      -0.1      -0.0      -0.1      -0.0
  7 H               104.2     108.6      -0.3      -0.3      -0.4      -0.1
  8 H                -0.4      -0.1     135.3     103.9     104.2     108.4
  9 H                -0.4      -0.1      -0.3      -0.3      -0.4      -0.1
 10 H                -0.0      -0.0      -0.3      -0.0      -0.1      -0.0

                    120       121       122       123       124       125   
                   0.00000   0.00000   0.00000   0.00000   0.00000   0.00000
                   0.00199   0.00016   0.00013   0.00003   0.00277   0.00012
                  --------  --------  --------  --------  --------  --------
  0 C               -33.6      -3.0      -3.0      -8.2       0.4       0.0
  1 C                 0.1      -0.1      -0.1      -0.1     -35.4      -3.6
  2 N                 0.1      -0.1      -0.1      -0.0       0.6      -0.1
  3 C                -0.0      -0.0      -0.0      -0.0       0.1      -0.2
  7 H                -0.2      -0.3      -0.4      -0.1      -0.3      -0.0
  8 H                -0.3      -0.4      -0.4      -0.1      -0.3      -0.1
  9 H               136.5     104.0     104.1     108.7      -0.1      -0.0
 10 H                -0.0      -0.1      -0.0      -0.0     138.1     104.7
 11 H                -0.3      -0.0      -0.1      -0.0      -0.3      -0.6
 12 H                -2.2      -0.0      -0.0      -0.1      -0.1      -0.0
 13 H                -0.0      -0.0      -0.0      -0.0      -2.6      -0.0

                    126       127       128       129       130       131   
                   0.00000   0.00000   0.00000   0.00000   0.00000   0.00000
                   0.00009   0.00002   0.00556   0.00013   0.00010   0.00002
                  --------  --------  --------  --------  --------  --------
  0 C                -0.4      -0.0       0.6      -0.1      -0.4      -0.1
  1 C                -4.3      -6.5     -31.5      -3.0      -3.7      -6.9
  2 N                -0.0      -0.4       0.3      -0.2      -0.0      -0.4
  3 C                -0.0      -0.1      -0.6      -0.1       0.0      -0.0
  7 H                -0.1      -0.0      -0.3      -0.0      -0.1      -0.0
  9 H                -0.1      -0.0      -0.3      -0.0      -0.0      -0.0
 10 H               105.5     107.2      -0.3      -0.6      -0.6      -0.0
 11 H                -0.5      -0.1     133.7     104.2     104.9     107.5
 14 H                -0.0      -0.0      -1.3      -0.1      -0.0      -0.0

                    132       133       134       135       136       137   
                   0.00000   0.00000   0.00000   0.00000   0.00000   0.00000
                   0.00555   0.00077   0.00025   0.00004   0.00216   0.00012
                  --------  --------  --------  --------  --------  --------
  0 C                -0.6      -0.0      -0.0      -0.0      -0.1      -0.0
  1 C                -3.1      -0.1      -0.3      -0.0      -0.6      -0.0
  2 N                -5.3      -3.6      -3.5      -5.7       0.4      -0.2
  3 C                -4.2      -0.1      -0.3       0.0     -35.7      -3.7
  4 C                 0.6      -0.0      -0.1      -0.2       1.7      -0.1
  5 C                -0.0      -0.0      -0.0       0.0      -0.7      -0.0
  6 N                -1.4      -0.0      -0.1      -0.0      -0.3      -0.1
  9 H                -2.1      -0.0      -0.1      -0.1      -0.0      -0.0
 10 H                -0.1      -0.0      -0.1      -0.0      -2.6      -0.0
 12 H               120.0     104.1     104.7     106.2      -0.0      -0.0
 13 H                -0.0      -0.0      -0.0      -0.0     140.5     104.9
 14 H                -0.3      -0.0      -0.0       0.0      -0.3      -0.6
 17 H                -0.0      -0.0      -0.0      -0.0      -2.2      -0.0
 19 H                -3.4      -0.0      -0.0      -0.1      -0.0      -0.0

                    138       139       140       141       142       143   
                   0.00000   0.00000   0.00000   0.00000   0.00000   0.00000
                   0.00009   0.00002   0.00548   0.00012   0.00008   0.00002
                  --------  --------  --------  --------  --------  --------
  1 C                -0.0      -0.0      -0.0      -0.1      -0.1      -0.0
  2 N                -0.1      -0.5       0.2      -0.1      -0.1      -0.4
  3 C                -3.9      -6.4     -33.8      -3.7      -3.4      -7.0
  4 C                -0.4      -0.1       0.7       0.0      -0.6      -0.0
  5 C                -0.0      -0.0      -0.4      -0.0      -0.1      -0.0
  6 N                -0.1      -0.0      -0.0      -0.1      -0.2      -0.0
 11 H                -0.0      -0.0      -1.3      -0.0      -0.0      -0.0
 12 H                -0.0      -0.0      -0.4      -0.1       0.0      -0.0
 13 H               105.4     107.2      -0.3      -0.7      -0.6      -0.0
 14 H                -0.5      -0.1     136.4     104.9     105.4     107.6
 15 H                -0.1      -0.0      -1.0      -0.0      -0.1      -0.0

                    144       145       146       147       148       149   
                   0.00000   0.00000   0.00000   0.00000   0.00000   0.00000
                   0.00313   0.00009   0.00008   0.00003   0.00425   0.00014
                  --------  --------  --------  --------  --------  --------
  2 N                -0.4      -0.1      -0.0      -0.0      -1.2      -0.0
  3 C                 1.5      -0.4      -0.3       0.0       0.0      -0.1
  4 C               -36.2      -3.0      -4.3      -6.6       0.7      -0.2
  5 C                 0.2      -0.3      -0.3       0.0     -36.2      -3.0
  6 N                 0.6      -0.3      -0.3      -0.7      -0.0      -0.1
 14 H                -1.0      -0.1      -0.0       0.0       0.0      -0.0
 15 H               136.5     104.5     105.5     107.4      -0.0      -0.0
 16 H                -0.0      -0.0      -0.0      -0.0     138.9     104.3
 17 H                -0.4      -0.0      -0.1      -0.0      -0.4      -0.4
 18 H                -0.2      -0.0      -0.0      -0.0      -0.5      -0.3
 19 H                -0.0      -0.1      -0.0      -0.0      -1.0      -0.0
 20 H                -0.5      -0.1      -0.0      -0.0      -0.0      -0.0

                    150       151       152       153       154       155   
                   0.00000   0.00000   0.00000   0.00000   0.00000   0.00000
                   0.00012   0.00003   0.00221   0.00017   0.00012   0.00002
                  --------  --------  --------  --------  --------  --------
  3 C                -0.0      -0.0       0.3      -0.1       0.0      -0.1
  4 C                -0.2      -0.0       0.1      -0.2      -0.0      -0.2
  5 C                -2.9      -8.2     -33.3      -2.9      -3.7      -7.6
  6 N                -0.2      -0.0      -0.1      -0.0      -0.1      -0.1
 13 H                -0.0       0.0      -2.2      -0.0      -0.0      -0.1
 15 H                -0.0      -0.0      -0.4      -0.0      -0.1      -0.0
 16 H               104.2     108.6      -0.4      -0.4      -0.4      -0.1
 17 H                -0.4      -0.1     136.3     104.0     104.7     108.3
 18 H                -0.3      -0.1      -0.3      -0.4      -0.4      -0.1

                    156       157       158       159       160       161   
                   0.00000   0.00000   0.00000   0.00000   0.00000   0.00000
                   0.00255   0.00016   0.00012   0.00003   0.00331   0.00084
                  --------  --------  --------  --------  --------  --------
  2 N                -0.0      -0.0      -0.0      -0.0      -0.3      -0.1
  3 C                -0.5      -0.0      -0.0      -0.1       0.4      -0.0
  4 C                 0.6      -0.2      -0.2      -0.2      -2.1      -0.2
  5 C               -34.1      -2.8      -3.0      -8.0      -1.2      -0.0
  6 N                -0.0      -0.1      -0.1      -0.0      -9.4      -3.5
 12 H                -0.0      -0.0      -0.0      -0.0      -3.4      -0.2
 15 H                -0.2      -0.0      -0.1      -0.0       0.0      -0.0
 16 H                -0.4      -0.4      -0.4      -0.1      -1.0       0.0
 17 H                -0.4      -0.3      -0.4      -0.1      -0.0      -0.0
 18 H               136.0     103.9     104.2     108.6      -0.0      -0.0
 19 H                -0.0      -0.0      -0.0       0.0     119.3     104.3
 20 H                -1.0      -0.0      -0.0      -0.1      -2.2      -0.3

                    162       163       164       165       166       167   
                   0.00000   0.00000   0.00000   0.00000   0.00000   0.00000
                   0.00037   0.00003   0.00250   0.00081   0.00038   0.00002
                  --------  --------  --------  --------  --------  --------
  3 C                -0.1      -0.1      -0.2       0.0      -0.1       0.0
  4 C                -0.3      -0.1      -2.7      -0.4      -0.3      -0.2
  5 C                -0.0       0.0       0.1      -0.0      -0.0      -0.0
  6 N                -3.2      -5.4      -8.2      -3.4      -3.0      -5.0
 15 H                -0.0      -0.0      -0.3      -0.1      -0.2      -0.0
 18 H                -0.0      -0.0      -1.0       0.0      -0.0      -0.1
 19 H               104.2     106.1      -2.0      -0.4      -0.5      -0.3
 20 H                -0.4      -0.3     114.3     104.4     104.1     105.6


Storing NBOs: 2515.nbo
                                    *** NBOs were stored ***

                                *** returned from GENNBO program ***

-------
TIMINGS
-------

Total SCF time: 0 days 0 hours 0 min 6 sec 

Total time                  ....       6.784 sec
Sum of individual times     ....       7.415 sec  (109.3%)

Fock matrix formation       ....       4.086 sec  ( 60.2%)
  Coulomb formation         ....       2.014 sec  ( 49.3% of F)
  Split-RI-J                ....       2.005 sec  ( 49.1% of F)
  XC integration            ....       2.068 sec  ( 50.6% of F)
    Basis function eval.    ....       0.640 sec  ( 30.9% of XC)
    Density eval.           ....       0.367 sec  ( 17.7% of XC)
    XC-Functional eval.     ....       0.103 sec  (  5.0% of XC)
    XC-Potential eval.      ....       0.790 sec  ( 38.2% of XC)
Diagonalization             ....       0.037 sec  (  0.5%)
Density matrix formation    ....       0.003 sec  (  0.0%)
Population analysis         ....       1.861 sec  ( 27.4%)
Initial guess               ....       0.480 sec  (  7.1%)
Orbital Transformation      ....       0.000 sec  (  0.0%)
Orbital Orthonormalization  ....       0.000 sec  (  0.0%)
DIIS solution               ....       0.010 sec  (  0.1%)
SOSCF solution              ....       0.009 sec  (  0.1%)
Grid generation             ....       0.928 sec  ( 13.7%)
           ************************************************************
           *              Shut down parallel processing               *
           ************************************************************

-------------------------   --------------------
FINAL SINGLE POINT ENERGY      -307.808623123891
-------------------------   --------------------


                            ***************************************
                            *     ORCA property calculations      *
                            ***************************************

                                    ---------------------
                                    Active property flags
                                    ---------------------
   (+) Dipole Moment


------------------------------------------------------------------------------
                       ORCA ELECTRIC PROPERTIES CALCULATION
------------------------------------------------------------------------------

Dipole Moment Calculation                       ... on
Quadrupole Moment Calculation                   ... off
Polarizability Calculation                      ... off
GBWName                                         ... 2515.gbw
Electron density file                           ... 2515.scfp.tmp

-------------
DIPOLE MOMENT
-------------
                                X             Y             Z
Electronic contribution:      1.90659      -1.55485       0.73361
Nuclear contribution   :     -1.87444       1.53747      -0.54361
                        -----------------------------------------
Total Dipole Moment    :      0.03215      -0.01738       0.18999
                        -----------------------------------------
Magnitude (a.u.)       :      0.19348
Magnitude (Debye)      :      0.49178


Timings for individual modules:

Sum of individual times         ...        8.091 sec (=   0.135 min)
GTO integral calculation        ...        0.486 sec (=   0.008 min)   6.0 %
SCF iterations                  ...        7.605 sec (=   0.127 min)  94.0 %
                             ****ORCA TERMINATED NORMALLY****
TOTAL RUN TIME: 0 days 0 hours 0 minutes 8 seconds 482 msec
