
                                 *****************
                                 * O   R   C   A *
                                 *****************

           --- An Ab Initio, DFT and Semiempirical electronic structure package ---

                  #######################################################
                  #                        -***-                        #
                  #  Department of molecular theory and spectroscopy    #
                  #              Directorship: Frank Neese              #
                  # Max Planck Institute for Chemical Energy Conversion #
                  #                  D-45470 Muelheim/Ruhr              #
                  #                       Germany                       #
                  #                                                     #
                  #                  All rights reserved                #
                  #                        -***-                        #
                  #######################################################


                         Program Version 3.0.3 - RELEASE   -


 With contributions from (in alphabetic order):
   Ute Becker             : Parallelization
   Dmytro Bykov           : SCF Hessian
   Dmitry Ganyushin       : Spin-Orbit,Spin-Spin,Magnetic field MRCI
   Andreas Hansen         : Spin unrestricted coupled pair/coupled cluster methods
   Dimitrios Liakos       : Extrapolation schemes; parallel MDCI
   Robert Izsak           : Overlap fitted RIJCOSX, COSX-SCS-MP3
   Christian Kollmar      : KDIIS, OOCD, Brueckner-CCSD(T), CCSD density
   Simone Kossmann        : Meta GGA functionals, TD-DFT gradient, OOMP2, MP2 Hessian
   Taras Petrenko         : DFT Hessian,TD-DFT gradient, ASA and ECA modules, normal mode analysis, Resonance Raman, ABS, FL, XAS/XES, NRVS
   Christoph Reimann      : Effective Core Potentials
   Michael Roemelt        : Restricted open shell CIS
   Christoph Riplinger    : Improved optimizer, TS searches, QM/MM, DLPNO-CCSD
   Barbara Sandhoefer     : DKH picture change effects
   Igor Schapiro          : Molecular dynamics
   Kantharuban Sivalingam : CASSCF convergence, NEVPT2
   Boris Wezisla          : Elementary symmetry handling
   Frank Wennmohs         : Technical directorship


 We gratefully acknowledge several colleagues who have allowed us to
 interface, adapt or use parts of their codes:
   Stefan Grimme, W. Hujo, H. Kruse, T. Risthaus : VdW corrections, initial TS optimization,
                                                   DFT functionals, gCP
   Ed Valeev                                     : LibInt (2-el integral package), F12 methods
   Garnet Chan, S. Sharma, R. Olivares           : DMRG
   Ulf Ekstrom                                   : XCFun DFT Library
   Mihaly Kallay                                 : mrcc  (arbitrary order and MRCC methods)
   Andreas Klamt, Michael Diedenhofen            : otool_cosmo (COSMO solvation model)
   Frank Weinhold                                : gennbo (NPA and NBO analysis)
   Christopher J. Cramer and Donald G. Truhlar   : smd solvation model


 Your calculation uses the libint2 library for the computation of 2-el integrals
 For citations please refer to: http://libint.valeyev.net

 This ORCA versions uses:
   CBLAS   interface :  Fast vector & matrix operations
   LAPACKE interface :  Fast linear algebra routines
   SCALAPACK package :  Parallel linear algebra routines


Your calculation utilizes the basis: Ahlrichs-VDZ
Cite in your paper:
H - Kr: A. Schaefer, H. Horn and R. Ahlrichs, J. Chem. Phys. 97, 2571 (1992).

Your calculation utilizes the basis: Ahlrichs SVPalls1+f
Cite in your paper:
Rb - Xe: A. Schaefer, C. Huber and R. Ahlrichs, J. Chem. Phys. 100, 5829 (1994).

================================================================================
                                        WARNINGS
                       Please study these warnings very carefully!
================================================================================
Now building the actual basis set


INFO   : the flag for use of LIBINT has been found!

================================================================================
                                       INPUT FILE
================================================================================
NAME = 2516.inp
|  1> ! RI PBE def2-SVP def2-SVP/J NBO PAL2
|  2> % maxcore 2000
|  3> % output
|  4>     # printlevel mini
|  5>     print[ P_Basis ] 0
|  6>     print[ P_SCFInfo ] 1
|  7>     print[ P_SCFIterInfo ] 1
|  8>     print[ P_OrbEn ] 0
|  9>     print[ P_Cartesian ] 0
| 10> end
| 11> *xyz 0 1
| 12>  C        0.9350180000     0.0987800000    -0.0024340000 
| 13>  C        2.4481170000     0.0625340000     0.0150920000 
| 14>  N        2.9917600000     0.3958310000    -1.2887220000 
| 15>  C        4.4338250000     0.4406650000    -1.3165770000 
| 16>  C        4.9161600000     0.6843800000    -2.7447000000 
| 17>  C        6.3656190000     0.7127160000    -2.8406980000 
| 18>  N        7.5136780000     0.7305610000    -2.8976430000 
| 19>  H        0.5295450000    -0.1865530000     0.9701590000 
| 20>  H        0.5419580000    -0.5848770000    -0.7574400000 
| 21>  H        0.5669850000     1.1035620000    -0.2308390000 
| 22>  H        2.7911690000    -0.9459560000     0.2703420000 
| 23>  H        2.8276150000     0.7297300000     0.8085140000 
| 24>  H        2.6133360000     1.2875350000    -1.5902160000 
| 25>  H        4.8153780000    -0.5252020000    -0.9724510000 
| 26>  H        4.8668710000     1.2045570000    -0.6496140000 
| 27>  H        4.5302420000     1.6383500000    -3.1190280000 
| 28>  H        4.5275340000    -0.0987120000    -3.4008340000 
| 29> *
| 30> 
| 31>                          ****END OF INPUT****
================================================================================

                       ****************************
                       * Single Point Calculation *
                       ****************************

--------------------------------
INTERNAL COORDINATES (ANGSTROEM)
--------------------------------
 C      0   0   0   0.000000     0.000     0.000
 C      1   0   0   1.513635     0.000     0.000
 N      2   1   0   1.451401   111.010     0.000
 C      3   2   1   1.443031   113.502   177.170
 C      4   3   2   1.526951   109.797   175.411
 C      5   4   3   1.452911   112.336   181.165
 N      6   5   4   1.149609   179.024     4.027
 H      1   2   3   1.091678   110.776   178.008
 H      1   2   3   1.091750   110.666    57.515
 H      1   2   3   1.094168   111.140   297.476
 H      2   1   3   1.095395   109.744   241.106
 H      2   1   3   1.103942   109.724   124.608
 H      3   2   1   1.014514   109.213    54.224
 H      4   3   2   1.094031   108.362    56.507
 H      4   3   2   1.102678   113.722   298.267
 H      5   4   3   1.095040   110.331    60.370
 H      5   4   3   1.093058   109.558   302.728

---------------------------
INTERNAL COORDINATES (A.U.)
---------------------------
 C      0   0   0   0.000000     0.000     0.000
 C      1   0   0   2.860355     0.000     0.000
 N      2   1   0   2.742751   111.010     0.000
 C      3   2   1   2.726933   113.502   177.170
 C      4   3   2   2.885519   109.797   175.411
 C      5   4   3   2.745604   112.336   181.165
 N      6   5   4   2.172446   179.024     4.027
 H      1   2   3   2.062972   110.776   178.008
 H      1   2   3   2.063108   110.666    57.515
 H      1   2   3   2.067678   111.140   297.476
 H      2   1   3   2.069996   109.744   241.106
 H      2   1   3   2.086148   109.724   124.608
 H      3   2   1   1.917154   109.213    54.224
 H      4   3   2   2.067420   108.362    56.507
 H      4   3   2   2.083760   113.722   298.267
 H      5   4   3   2.069326   110.331    60.370
 H      5   4   3   2.065580   109.558   302.728



           ************************************************************
           *        Program running with 2 parallel MPI-processes     *
           *              working on a common directory               *
           ************************************************************
------------------------------------------------------------------------------
                           ORCA GTO INTEGRAL CALCULATION
                           -- RI-GTO INTEGRALS CHOSEN --
------------------------------------------------------------------------------

                         BASIS SET STATISTICS AND STARTUP INFO

Gaussian basis set:
 # of primitive gaussian shells          ...  134
 # of primitive gaussian functions       ...  238
 # of contracted shells                  ...   72
 # of contracted basis functions         ...  148
 Highest angular momentum                ...    2
 Maximum contraction depth               ...    5
Auxiliary gaussian basis set:
 # of primitive gaussian shells          ...  248
 # of primitive gaussian functions       ...  650
 # of contracted shells                  ...  155
 # of contracted aux-basis functions     ...  453
 Highest angular momentum                ...    4
 Maximum contraction depth               ...    7
Ratio of auxiliary to basis functions    ...  3.06
Integral package used                  ... LIBINT
 One Electron integrals                  ... done
 Ordering auxiliary basis shells         ... done
 Integral threshhold             Thresh  ...  1.000e-10
 Primitive cut-off               TCut    ...  1.000e-11
 Pre-screening matrix                    ... done
 Shell pair data                         ... 
 Ordering of the shell pairs             ... done (   0.000 sec) 2404 of 2628 pairs
 Determination of significant pairs      ... done (   0.000 sec)
 Creation of shell pair data             ... done (   0.000 sec)
 Storage of shell pair data              ... done (   0.000 sec)
 Shell pair data done in (   0.001 sec)
 Computing two index integrals           ... done
 Cholesky decomposition of the V-matrix  ... done


Timings:
 Total evaluation time                   ...   0.156 sec (  0.003 min)
 One electron matrix time                ...   0.018 sec (  0.000 min) = 11.7%
 Schwartz matrix evaluation time         ...   0.073 sec (  0.001 min) = 46.6%
 Two index repulsion integral time       ...   0.006 sec (  0.000 min) =  3.7%
 Cholesky decomposition of V             ...   0.004 sec (  0.000 min) =  2.4%
 Three index repulsion integral time     ...   0.000 sec (  0.000 min) =  0.0%

           ************************************************************
           *              Shut down parallel processing               *
           ************************************************************


           ************************************************************
           *        Program running with 2 parallel MPI-processes     *
           *              working on a common directory               *
           ************************************************************
-------------------------------------------------------------------------------
                                 ORCA SCF
-------------------------------------------------------------------------------

------------
SCF SETTINGS
------------
Hamiltonian:
 Density Functional     Method          .... DFT(GTOs)
 Exchange Functional    Exchange        .... PBE
   PBE kappa parameter  XKappa          ....  0.804000
 Correlation Functional Correlation     .... PBE
 LDA part of GGA corr.  LDAOpt          .... PW91-LDA
 Gradients option       PostSCFGGA      .... off
   NL short-range parameter             ....  6.400000
 RI-approximation to the Coulomb term is turned on
   Number of auxiliary basis functions  .... 453


General Settings:
 Integral files         IntName         .... 2516
 Hartree-Fock type      HFTyp           .... RHF
 Total Charge           Charge          ....    0
 Multiplicity           Mult            ....    1
 Number of Electrons    NEL             ....   54
 Basis Dimension        Dim             ....  148
 Nuclear Repulsion      ENuc            ....    277.9999059571 Eh

Convergence Acceleration:
 DIIS                   CNVDIIS         .... on
   Start iteration      DIISMaxIt       ....    12
   Startup error        DIISStart       ....  0.200000
   # of expansion vecs  DIISMaxEq       ....     5
   Bias factor          DIISBfac        ....   1.050
   Max. coefficient     DIISMaxC        ....  10.000
 Newton-Raphson         CNVNR           .... off
 SOSCF                  CNVSOSCF        .... on
   Start iteration      SOSCFMaxIt      ....   150
   Startup grad/error   SOSCFStart      ....  0.003300
 Level Shifting         CNVShift        .... on
   Level shift para.    LevelShift      ....    0.2500
   Turn off err/grad.   ShiftErr        ....    0.0010
 Zerner damping         CNVZerner       .... off
 Static damping         CNVDamp         .... on
   Fraction old density DampFac         ....    0.7000
   Max. Damping (<1)    DampMax         ....    0.9800
   Min. Damping (>=0)   DampMin         ....    0.0000
   Turn off err/grad.   DampErr         ....    0.1000
 Fernandez-Rico         CNVRico         .... off

SCF Procedure:
 Maximum # iterations   MaxIter         ....   125
 SCF integral mode      SCFMode         .... Direct
   Integral package                     .... LIBINT
 Reset frequeny         DirectResetFreq ....    20
 Integral Threshold     Thresh          ....  1.000e-10 Eh
 Primitive CutOff       TCut            ....  1.000e-11 Eh

Convergence Tolerance:
 Convergence Check Mode ConvCheckMode   .... Total+1el-Energy
 Energy Change          TolE            ....  1.000e-06 Eh
 1-El. energy change                    ....  1.000e-03 Eh
 Orbital Gradient       TolG            ....  5.000e-05
 Orbital Rotation angle TolX            ....  5.000e-05
 DIIS Error             TolErr          ....  1.000e-06


Diagonalization of the overlap matrix:
Smallest eigenvalue                        ... 6.895e-04
Time for diagonalization                   ...    0.012 sec
Threshold for overlap eigenvalues          ... 1.000e-08
Number of eigenvalues below threshold      ... 0
Time for construction of square roots      ...    0.003 sec
Total time needed                          ...    0.015 sec

-------------------
DFT GRID GENERATION
-------------------

General Integration Accuracy     IntAcc      ...  4.340
Radial Grid Type                 RadialGrid  ... Gauss-Chebyshev
Angular Grid (max. acc.)         AngularGrid ... Lebedev-110
Angular grid pruning method      GridPruning ... 3 (G Style)
Weight generation scheme         WeightScheme... Becke
Basis function cutoff            BFCut       ...    1.0000e-10
Integration weight cutoff        WCut        ...    1.0000e-14
Grids for H and He will be reduced by one unit

# of grid points (after initial pruning)     ...  19624 (   0.0 sec)
# of grid points (after weights+screening)   ...  18232 (   0.1 sec)
nearest neighbour list constructed           ...    0.0 sec
Grid point re-assignment to atoms done       ...    0.0 sec
Grid point division into batches done        ...    0.0 sec
Reduced shell lists constructed in    0.1 sec

Total number of grid points                  ...    18232
Total number of batches                      ...      293
Average number of points per batch           ...       62
Average number of grid points per atom       ...     1072
Average number of shells per batch           ...    48.09 (66.80%)
Average number of basis functions per batch  ...    94.73 (64.01%)
Average number of large shells per batch     ...    37.04 (77.02%)
Average number of large basis fcns per batch ...    72.92 (76.98%)
Maximum spatial batch extension              ...  17.70, 25.60, 20.79 au
Average spatial batch extension              ...   1.51,  1.77,  1.69 au

Time for grid setup =    0.148 sec

------------------------------
INITIAL GUESS: MODEL POTENTIAL
------------------------------
Loading Hartree-Fock densities                     ... done
Calculating cut-offs                               ... done
Setting up the integral package                    ... done
Initializing the effective Hamiltonian             ... done
Starting the Coulomb interaction                   ... done (   0.0 sec)
Reading the grid                                   ... done
Mapping shells                                     ... done
Starting the XC term evaluation                    ... done (   0.1 sec)
  promolecular density results
     # of electrons  =     53.982007154
     EX              =    -41.545265887
     EC              =     -1.755419012
     EX+EC           =    -43.300684899
Transforming the Hamiltonian                       ... done (   0.0 sec)
Diagonalizing the Hamiltonian                      ... done (   0.0 sec)
Back transforming the eigenvectors                 ... done (   0.0 sec)
Now organizing SCF variables                       ... done
                      ------------------
                      INITIAL GUESS DONE (   0.4 sec)
                      ------------------
--------------
SCF ITERATIONS
--------------
ITER       Energy         Delta-E        Max-DP      RMS-DP      [F,P]     Damp
               ***  Starting incremental Fock matrix formation  ***
  0   -305.1844446093   0.000000000000 0.08831360  0.00320825  0.2399628 0.7000
  1   -305.2960420740  -0.111597464672 0.06743874  0.00222996  0.0772891 0.7000
                               ***Turning on DIIS***
  2   -305.3286506592  -0.032608585246 0.08168625  0.00321218  0.0396481 0.0000
  3   -305.3881424111  -0.059491751874 0.05878755  0.00170182  0.0490121 0.0000
  4   -305.4001941644  -0.012051753252 0.02347665  0.00055617  0.0469984 0.0000
  5   -305.4029260501  -0.002731885714 0.00465339  0.00015814  0.0035372 0.0000
                      *** Initiating the SOSCF procedure ***
                           *** Shutting down DIIS ***
                      *** Re-Reading the Fockian *** 
                      *** Removing any level shift *** 
ITER      Energy       Delta-E        Grad      Rot      Max-DP    RMS-DP
  6   -305.40300202  -0.0000759738  0.000358  0.000358  0.001309  0.000060
               *** Restarting incremental Fock matrix formation ***
  7   -305.40301245  -0.0000104286  0.000150  0.000402  0.001084  0.000038
  8   -305.40301163   0.0000008256  0.000238  0.000202  0.000655  0.000022
  9   -305.40301349  -0.0000018609  0.000087  0.000271  0.000346  0.000009
 10   -305.40301317   0.0000003168  0.000251  0.000200  0.000251  0.000006
                  ***Gradient check signals convergence***
              ***Rediagonalizing the Fockian in SOSCF/NRSCF***

               *****************************************************
               *                     SUCCESS                       *
               *           SCF CONVERGED AFTER  11 CYCLES          *
               *****************************************************

Setting up the final grid:

General Integration Accuracy     IntAcc      ...  4.670
Radial Grid Type                 RadialGrid  ... Gauss-Chebyshev
Angular Grid (max. acc.)         AngularGrid ... Lebedev-302
Angular grid pruning method      GridPruning ... 3 (G Style)
Weight generation scheme         WeightScheme... Becke
Basis function cutoff            BFCut       ...    1.0000e-10
Integration weight cutoff        WCut        ...    1.0000e-14
Grids for H and He will be reduced by one unit

# of grid points (after initial pruning)     ...  77424 (   0.0 sec)
# of grid points (after weights+screening)   ...  71062 (   0.1 sec)
nearest neighbour list constructed           ...    0.0 sec
Grid point re-assignment to atoms done       ...    0.0 sec
Grid point division into batches done        ...    0.2 sec
Reduced shell lists constructed in    0.4 sec

Total number of grid points                  ...    71062
Total number of batches                      ...     1118
Average number of points per batch           ...       63
Average number of grid points per atom       ...     4180
Average number of shells per batch           ...    44.54 (61.87%)
Average number of basis functions per batch  ...    87.35 (59.02%)
Average number of large shells per batch     ...    34.08 (76.52%)
Average number of large basis fcns per batch ...    66.75 (76.41%)
Maximum spatial batch extension              ...  17.67, 20.59, 18.00 au
Average spatial batch extension              ...   1.10,  1.19,  1.13 au

Final grid set up in    0.6 sec
Final integration                            ... done (   0.4 sec)
Change in XC energy                          ...    -0.000757241
Integrated number of electrons               ...    53.999927825
Previous integrated no of electrons          ...    53.994269665

----------------
TOTAL SCF ENERGY
----------------

Total Energy       :         -305.40377079 Eh           -8310.45910 eV

Components:
Nuclear Repulsion  :          277.99990596 Eh            7564.76203 eV
Electronic Energy  :         -583.40367674 Eh          -15875.22112 eV

One Electron Energy:         -961.75893839 Eh          -26170.79121 eV
Two Electron Energy:          378.35526165 Eh           10295.57009 eV

Virial components:
Potential Energy   :         -607.86231249 Eh          -16540.77444 eV
Kinetic Energy     :          302.45854170 Eh            8230.31534 eV
Virial Ratio       :            2.00973763


DFT components:
N(Alpha)           :       26.999963912682 electrons
N(Beta)            :       26.999963912682 electrons
N(Total)           :       53.999927825364 electrons
E(X)               :      -42.448718869014 Eh       
E(C)               :       -1.772861391761 Eh       
E(XC)              :      -44.221580260775 Eh       

---------------
SCF CONVERGENCE
---------------

  Last Energy change         ...   -3.7517e-07  Tolerance :   1.0000e-06
  Last MAX-Density change    ...    8.2907e-05  Tolerance :   1.0000e-05
  Last RMS-Density change    ...    3.1416e-06  Tolerance :   1.0000e-06
  Last Orbital Gradient      ...    8.1973e-06  Tolerance :   5.0000e-05
  Last Orbital Rotation      ...    4.0069e-05  Tolerance :   5.0000e-05

             **** THE GBW FILE WAS UPDATED (2516.gbw) ****
             **** DENSITY FILE WAS UPDATED (2516.scfp.tmp) ****
             **** ENERGY FILE WAS UPDATED (2516.en.tmp) ****

                    ********************************
                    * MULLIKEN POPULATION ANALYSIS *
                    ********************************

-----------------------
MULLIKEN ATOMIC CHARGES
-----------------------
   0 C :   -0.027858
   1 C :    0.072210
   2 N :   -0.265876
   3 C :    0.061297
   4 C :    0.073662
   5 C :   -0.280217
   6 N :    0.051725
   7 H :    0.023998
   8 H :    0.032788
   9 H :    0.018073
  10 H :    0.009886
  11 H :   -0.006949
  12 H :    0.097757
  13 H :    0.024818
  14 H :    0.012974
  15 H :    0.043813
  16 H :    0.057898
Sum of atomic charges:   -0.0000000

--------------------------------
MULLIKEN REDUCED ORBITAL CHARGES
--------------------------------
  0 C s       :     2.998543  s :     2.998543
      pz      :     1.013554  p :     3.004403
      px      :     0.973393
      py      :     1.017457
      dz2     :     0.004821  d :     0.024912
      dxz     :     0.004686
      dyz     :     0.003953
      dx2y2   :     0.005711
      dxy     :     0.005740
  1 C s       :     2.982536  s :     2.982536
      pz      :     0.871691  p :     2.895697
      px      :     0.995344
      py      :     1.028662
      dz2     :     0.012911  d :     0.049557
      dxz     :     0.010791
      dyz     :     0.011365
      dx2y2   :     0.007535
      dxy     :     0.006955
  2 N s       :     3.489735  s :     3.489735
      pz      :     1.312973  p :     3.752742
      px      :     1.104652
      py      :     1.335118
      dz2     :     0.006432  d :     0.023399
      dxz     :     0.004138
      dyz     :     0.002518
      dx2y2   :     0.006236
      dxy     :     0.004075
  3 C s       :     3.004394  s :     3.004394
      pz      :     0.981155  p :     2.884961
      px      :     0.854093
      py      :     1.049712
      dz2     :     0.008354  d :     0.049348
      dxz     :     0.011262
      dyz     :     0.007419
      dx2y2   :     0.010677
      dxy     :     0.011635
  4 C s       :     2.847361  s :     2.847361
      pz      :     1.024906  p :     3.044838
      px      :     0.983387
      py      :     1.036545
      dz2     :     0.006521  d :     0.034139
      dxz     :     0.006139
      dyz     :     0.007984
      dx2y2   :     0.008380
      dxy     :     0.005115
  5 C s       :     3.160434  s :     3.160434
      pz      :     0.960458  p :     3.075264
      px      :     1.145937
      py      :     0.968869
      dz2     :     0.003117  d :     0.044519
      dxz     :     0.015795
      dyz     :     0.000101
      dx2y2   :     0.008655
      dxy     :     0.016851
  6 N s       :     3.538325  s :     3.538325
      pz      :     1.043231  p :     3.379039
      px      :     1.284867
      py      :     1.050942
      dz2     :     0.002903  d :     0.030910
      dxz     :     0.009705
      dyz     :     0.000028
      dx2y2   :     0.008610
      dxy     :     0.009664
  7 H s       :     0.952294  s :     0.952294
      pz      :     0.011840  p :     0.023709
      px      :     0.005733
      py      :     0.006136
  8 H s       :     0.943583  s :     0.943583
      pz      :     0.009519  p :     0.023629
      px      :     0.005444
      py      :     0.008665
  9 H s       :     0.957979  s :     0.957979
      pz      :     0.006110  p :     0.023948
      px      :     0.005737
      py      :     0.012101
 10 H s       :     0.968623  s :     0.968623
      pz      :     0.003977  p :     0.021491
      px      :     0.004991
      py      :     0.012523
 11 H s       :     0.985749  s :     0.985749
      pz      :     0.008180  p :     0.021200
      px      :     0.005015
      py      :     0.008005
 12 H s       :     0.857505  s :     0.857505
      pz      :     0.013149  p :     0.044738
      px      :     0.011350
      py      :     0.020239
 13 H s       :     0.953560  s :     0.953560
      pz      :     0.005336  p :     0.021622
      px      :     0.004166
      py      :     0.012120
 14 H s       :     0.965716  s :     0.965716
      pz      :     0.007406  p :     0.021310
      px      :     0.004533
      py      :     0.009372
 15 H s       :     0.932629  s :     0.932629
      pz      :     0.005756  p :     0.023558
      px      :     0.005799
      py      :     0.012003
 16 H s       :     0.918856  s :     0.918856
      pz      :     0.007529  p :     0.023246
      px      :     0.005758
      py      :     0.009959


                     *******************************
                     * LOEWDIN POPULATION ANALYSIS *
                     *******************************

----------------------
LOEWDIN ATOMIC CHARGES
----------------------
   0 C :   -0.069405
   1 C :    0.011312
   2 N :   -0.103602
   3 C :    0.025966
   4 C :   -0.061891
   5 C :   -0.045012
   6 N :   -0.067867
   7 H :    0.032073
   8 H :    0.029710
   9 H :    0.023403
  10 H :    0.021343
  11 H :    0.000817
  12 H :    0.052884
  13 H :    0.028933
  14 H :    0.007644
  15 H :    0.054039
  16 H :    0.059655

-------------------------------
LOEWDIN REDUCED ORBITAL CHARGES
-------------------------------
  0 C s       :     2.839630  s :     2.839630
      pz      :     1.069647  p :     3.160921
      px      :     1.021754
      py      :     1.069519
      dz2     :     0.014158  d :     0.068854
      dxz     :     0.011917
      dyz     :     0.011458
      dx2y2   :     0.018210
      dxy     :     0.013110
  1 C s       :     2.834337  s :     2.834337
      pz      :     0.945732  p :     3.035320
      px      :     1.024681
      py      :     1.064907
      dz2     :     0.033415  d :     0.119032
      dxz     :     0.023409
      dyz     :     0.026800
      dx2y2   :     0.021280
      dxy     :     0.014127
  2 N s       :     3.130635  s :     3.130635
      pz      :     1.358596  p :     3.919393
      px      :     1.164629
      py      :     1.396168
      dz2     :     0.014228  d :     0.053574
      dxz     :     0.009835
      dyz     :     0.005226
      dx2y2   :     0.015388
      dxy     :     0.008898
  3 C s       :     2.834793  s :     2.834793
      pz      :     1.012990  p :     3.019751
      px      :     0.924709
      py      :     1.082052
      dz2     :     0.022440  d :     0.119490
      dxz     :     0.025971
      dyz     :     0.018532
      dx2y2   :     0.027132
      dxy     :     0.025415
  4 C s       :     2.831858  s :     2.831858
      pz      :     1.050327  p :     3.138565
      px      :     1.014812
      py      :     1.073426
      dz2     :     0.019195  d :     0.091469
      dxz     :     0.015833
      dyz     :     0.018721
      dx2y2   :     0.024215
      dxy     :     0.013504
  5 C s       :     2.916862  s :     2.916862
      pz      :     0.930708  p :     3.020751
      px      :     1.156767
      py      :     0.933276
      dz2     :     0.010261  d :     0.107399
      dxz     :     0.033315
      dyz     :     0.000140
      dx2y2   :     0.029731
      dxy     :     0.033952
  6 N s       :     3.422208  s :     3.422208
      pz      :     1.054211  p :     3.592005
      px      :     1.475455
      py      :     1.062339
      dz2     :     0.006430  d :     0.053655
      dxz     :     0.014045
      dyz     :     0.000040
      dx2y2   :     0.019196
      dxy     :     0.013943
  7 H s       :     0.901232  s :     0.901232
      pz      :     0.034344  p :     0.066695
      px      :     0.017239
      py      :     0.015112
  8 H s       :     0.902986  s :     0.902986
      pz      :     0.026802  p :     0.067305
      px      :     0.016795
      py      :     0.023708
  9 H s       :     0.910320  s :     0.910320
      pz      :     0.014414  p :     0.066277
      px      :     0.016686
      py      :     0.035176
 10 H s       :     0.914077  s :     0.914077
      pz      :     0.011778  p :     0.064580
      px      :     0.015636
      py      :     0.037166
 11 H s       :     0.932722  s :     0.932722
      pz      :     0.028303  p :     0.066461
      px      :     0.015739
      py      :     0.022418
 12 H s       :     0.821921  s :     0.821921
      pz      :     0.034269  p :     0.125196
      px      :     0.028057
      py      :     0.062870
 13 H s       :     0.905532  s :     0.905532
      pz      :     0.015665  p :     0.065535
      px      :     0.013706
      py      :     0.036165
 14 H s       :     0.924727  s :     0.924727
      pz      :     0.023812  p :     0.067629
      px      :     0.017203
      py      :     0.026614
 15 H s       :     0.878155  s :     0.878155
      pz      :     0.017376  p :     0.067806
      px      :     0.015415
      py      :     0.035015
 16 H s       :     0.871333  s :     0.871333
      pz      :     0.024490  p :     0.069012
      px      :     0.015894
      py      :     0.028629


                      *****************************
                      * MAYER POPULATION ANALYSIS *
                      *****************************

  NA   - Mulliken gross atomic population
  ZA   - Total nuclear charge
  QA   - Mulliken gross atomic charge
  VA   - Mayer's total valence
  BVA  - Mayer's bonded valence
  FA   - Mayer's free valence

  ATOM       NA         ZA         QA         VA         BVA        FA
  0 C      6.0279     6.0000    -0.0279     4.0300     4.0300     0.0000
  1 C      5.9278     6.0000     0.0722     4.0659     4.0659     0.0000
  2 N      7.2659     7.0000    -0.2659     3.1246     3.1246    -0.0000
  3 C      5.9387     6.0000     0.0613     4.0783     4.0783    -0.0000
  4 C      5.9263     6.0000     0.0737     4.0150     4.0150    -0.0000
  5 C      6.2802     6.0000    -0.2802     4.2700     4.2700     0.0000
  6 N      6.9483     7.0000     0.0517     3.1767     3.1767     0.0000
  7 H      0.9760     1.0000     0.0240     0.9883     0.9883     0.0000
  8 H      0.9672     1.0000     0.0328     0.9977     0.9977     0.0000
  9 H      0.9819     1.0000     0.0181     0.9901     0.9901     0.0000
 10 H      0.9901     1.0000     0.0099     0.9801     0.9801     0.0000
 11 H      1.0069     1.0000    -0.0069     0.9733     0.9733     0.0000
 12 H      0.9022     1.0000     0.0978     0.9952     0.9952    -0.0000
 13 H      0.9752     1.0000     0.0248     0.9838     0.9838    -0.0000
 14 H      0.9870     1.0000     0.0130     0.9777     0.9777    -0.0000
 15 H      0.9562     1.0000     0.0438     0.9925     0.9925     0.0000
 16 H      0.9421     1.0000     0.0579     1.0037     1.0037    -0.0000

  Mayer bond orders larger than 0.1
B(  0-C ,  1-C ) :   1.1168 B(  0-C ,  7-H ) :   0.9576 B(  0-C ,  8-H ) :   0.9642 
B(  0-C ,  9-H ) :   0.9673 B(  1-C ,  2-N ) :   1.0211 B(  1-C , 10-H ) :   0.9374 
B(  1-C , 11-H ) :   0.9238 B(  2-N ,  3-C ) :   1.0611 B(  2-N , 12-H ) :   0.9347 
B(  3-C ,  4-C ) :   1.0768 B(  3-C , 13-H ) :   0.9323 B(  3-C , 14-H ) :   0.9252 
B(  4-C ,  5-C ) :   1.1103 B(  4-C , 15-H ) :   0.8896 B(  4-C , 16-H ) :   0.8832 
B(  5-C ,  6-N ) :   3.0554 


 *********************************** NBO 6.0 ***********************************
             N A T U R A L   A T O M I C   O R B I T A L   A N D
          N A T U R A L   B O N D   O R B I T A L   A N A L Y S I S
 ***************************** Kiya KiyaLu (100703) ****************************
  (c) Copyright 1996-2015 Board of Regents of the University of Wisconsin System
      on behalf of the Theoretical Chemistry Institute.  All rights reserved.

          Cite this program as:

          NBO 6.0.  E. D. Glendening, J. K. Badenhoop, A. E. Reed,
          J. E. Carpenter, J. A. Bohmann, C. M. Morales, C. R. Landis,
          and F. Weinhold (Theoretical Chemistry Institute, University
          of Wisconsin, Madison, WI, 2013); http://nbo6.chem.wisc.edu/

       /NPA    / : Natural Population Analysis
       /NBO    / : Natural Bond Orbital Analysis
       /AONBO  / : Write the AO to NBO transformation to lfn77
       /FILE   / : Set to 2516

 Filename set to 2516

 Job title:  *** NBO job generated by orca_scf

 Warning: MOs are non-orthogonal; program will continue

 Warning: -3320.19524 electrons reside outside the linearly independent MO space


 NATURAL POPULATIONS:  Natural atomic orbital occupancies

  NAO Atom No lang   Type(AO)    Occupancy      Energy
 -------------------------------------------------------
   1    C  1  s      Cor( 1s)     1.99922      -9.77935
   2    C  1  s      Val( 2s)     1.09207      -0.22410
   3    C  1  s      Ryd( 3s)     0.00035       0.80642
   4    C  1  px     Val( 2p)     1.08822      -0.07390
   5    C  1  px     Ryd( 3p)     0.00109       0.46624
   6    C  1  py     Val( 2p)     1.22907      -0.07227
   7    C  1  py     Ryd( 3p)     0.00139       0.55370
   8    C  1  pz     Val( 2p)     1.23733      -0.07188
   9    C  1  pz     Ryd( 3p)     0.00239       0.58602
  10    C  1  dxy    Ryd( 3d)     0.00045       2.12408
  11    C  1  dxz    Ryd( 3d)     0.00036       2.13182
  12    C  1  dyz    Ryd( 3d)     0.00041       2.23848
  13    C  1  dx2y2  Ryd( 3d)     0.00052       2.24768
  14    C  1  dz2    Ryd( 3d)     0.00050       2.24384

  15    C  2  s      Cor( 1s)     1.99918      -9.80984
  16    C  2  s      Val( 2s)     0.99541      -0.20123
  17    C  2  s      Ryd( 3s)     0.00202       0.80054
  18    C  2  px     Val( 2p)     1.05774      -0.08071
  19    C  2  px     Ryd( 3p)     0.00243       0.63506
  20    C  2  py     Val( 2p)     1.20025      -0.07534
  21    C  2  py     Ryd( 3p)     0.00174       0.62408
  22    C  2  pz     Val( 2p)     0.95662      -0.06123
  23    C  2  pz     Ryd( 3p)     0.00195       0.49482
  24    C  2  dxy    Ryd( 3d)     0.00067       2.09507
  25    C  2  dxz    Ryd( 3d)     0.00092       2.10601
  26    C  2  dyz    Ryd( 3d)     0.00102       2.23272
  27    C  2  dx2y2  Ryd( 3d)     0.00066       2.26380
  28    C  2  dz2    Ryd( 3d)     0.00127       2.20062

  29    N  3  s      Cor( 1s)     1.99932     -13.84097
  30    N  3  s      Val( 2s)     1.32546      -0.48160
  31    N  3  s      Ryd( 3s)     0.00174       1.13213
  32    N  3  px     Val( 2p)     1.30304      -0.19215
  33    N  3  px     Ryd( 3p)     0.00215       1.04169
  34    N  3  py     Val( 2p)     1.56216      -0.18230
  35    N  3  py     Ryd( 3p)     0.00345       1.04168
  36    N  3  pz     Val( 2p)     1.49699      -0.19591
  37    N  3  pz     Ryd( 3p)     0.00343       0.97874
  38    N  3  dxy    Ryd( 3d)     0.00068       2.45696
  39    N  3  dxz    Ryd( 3d)     0.00066       2.38573
  40    N  3  dyz    Ryd( 3d)     0.00087       2.40875
  41    N  3  dx2y2  Ryd( 3d)     0.00125       2.65225
  42    N  3  dz2    Ryd( 3d)     0.00128       2.57206

  43    C  4  s      Cor( 1s)     1.99916      -9.82330
  44    C  4  s      Val( 2s)     0.99258      -0.20884
  45    C  4  s      Ryd( 3s)     0.00229       0.77991
  46    C  4  px     Val( 2p)     0.89430      -0.07405
  47    C  4  px     Ryd( 3p)     0.00209       0.55583
  48    C  4  py     Val( 2p)     1.22845      -0.08959
  49    C  4  py     Ryd( 3p)     0.00261       0.67207
  50    C  4  pz     Val( 2p)     1.07851      -0.09348
  51    C  4  pz     Ryd( 3p)     0.00196       0.60590
  52    C  4  dxy    Ryd( 3d)     0.00113       2.15707
  53    C  4  dxz    Ryd( 3d)     0.00099       2.08540
  54    C  4  dyz    Ryd( 3d)     0.00061       2.20871
  55    C  4  dx2y2  Ryd( 3d)     0.00102       2.24896
  56    C  4  dz2    Ryd( 3d)     0.00076       2.16491

  57    C  5  s      Cor( 1s)     1.99902      -9.82199
  58    C  5  s      Val( 2s)     1.03752      -0.22343
  59    C  5  s      Ryd( 3s)     0.00072       0.83654
  60    C  5  px     Val( 2p)     1.10262      -0.11181
  61    C  5  px     Ryd( 3p)     0.00312       0.53720
  62    C  5  py     Val( 2p)     1.25621      -0.11012
  63    C  5  py     Ryd( 3p)     0.00189       0.73091
  64    C  5  pz     Val( 2p)     1.14720      -0.11189
  65    C  5  pz     Ryd( 3p)     0.00095       0.52275
  66    C  5  dxy    Ryd( 3d)     0.00039       2.10991
  67    C  5  dxz    Ryd( 3d)     0.00044       2.04565
  68    C  5  dyz    Ryd( 3d)     0.00079       2.22949
  69    C  5  dx2y2  Ryd( 3d)     0.00083       2.26595
  70    C  5  dz2    Ryd( 3d)     0.00062       2.15067

  71    C  6  s      Cor( 1s)     1.99923      -9.80476
  72    C  6  s      Val( 2s)     0.82028      -0.11463
  73    C  6  s      Ryd( 3s)     0.00506       0.57549
  74    C  6  px     Val( 2p)     0.98905       0.05436
  75    C  6  px     Ryd( 3p)     0.02152       0.60682
  76    C  6  py     Val( 2p)     0.93074      -0.10147
  77    C  6  py     Ryd( 3p)     0.00202       0.51566
  78    C  6  pz     Val( 2p)     0.93364      -0.09972
  79    C  6  pz     Ryd( 3p)     0.00382       0.54219
  80    C  6  dxy    Ryd( 3d)     0.00166       2.17610
  81    C  6  dxz    Ryd( 3d)     0.00153       2.17164
  82    C  6  dyz    Ryd( 3d)     0.00002       1.65416
  83    C  6  dx2y2  Ryd( 3d)     0.00070       2.60097
  84    C  6  dz2    Ryd( 3d)     0.00026       2.00078

  85    N  7  s      Cor( 1s)     1.99957     -13.73373
  86    N  7  s      Val( 2s)     1.58296      -0.49996
  87    N  7  s      Ryd( 3s)     0.00511       1.17810
  88    N  7  px     Val( 2p)     1.54894      -0.15594
  89    N  7  px     Ryd( 3p)     0.00234       0.79290
  90    N  7  py     Val( 2p)     1.09335      -0.13322
  91    N  7  py     Ryd( 3p)     0.00025       0.81910
  92    N  7  pz     Val( 2p)     1.08310      -0.13295
  93    N  7  pz     Ryd( 3p)     0.00026       0.82293
  94    N  7  dxy    Ryd( 3d)     0.00292       2.33682
  95    N  7  dxz    Ryd( 3d)     0.00289       2.34319
  96    N  7  dyz    Ryd( 3d)     0.00001       2.10033
  97    N  7  dx2y2  Ryd( 3d)     0.00286       2.72627
  98    N  7  dz2    Ryd( 3d)     0.00095       2.31049

  99    H  8  s      Val( 1s)     0.76802       0.06246
 100    H  8  s      Ryd( 2s)     0.00137       0.32298
 101    H  8  px     Ryd( 2p)     0.00022       1.76284
 102    H  8  py     Ryd( 2p)     0.00021       1.75247
 103    H  8  pz     Ryd( 2p)     0.00066       2.16946

 104    H  9  s      Val( 1s)     0.77067       0.06794
 105    H  9  s      Ryd( 2s)     0.00315       0.32934
 106    H  9  px     Ryd( 2p)     0.00019       1.76644
 107    H  9  py     Ryd( 2p)     0.00039       1.94072
 108    H  9  pz     Ryd( 2p)     0.00047       1.99934

 109    H 10  s      Val( 1s)     0.78431       0.05291
 110    H 10  s      Ryd( 2s)     0.00198       0.33220
 111    H 10  px     Ryd( 2p)     0.00024       1.74826
 112    H 10  py     Ryd( 2p)     0.00070       2.18902
 113    H 10  pz     Ryd( 2p)     0.00020       1.74157

 114    H 11  s      Val( 1s)     0.78311       0.06035
 115    H 11  s      Ryd( 2s)     0.00271       0.33244
 116    H 11  px     Ryd( 2p)     0.00017       1.79347
 117    H 11  py     Ryd( 2p)     0.00084       2.18628
 118    H 11  pz     Ryd( 2p)     0.00012       1.73200

 119    H 12  s      Val( 1s)     0.80880       0.05130
 120    H 12  s      Ryd( 2s)     0.00484       0.33844
 121    H 12  px     Ryd( 2p)     0.00021       1.80753
 122    H 12  py     Ryd( 2p)     0.00040       1.92075
 123    H 12  pz     Ryd( 2p)     0.00048       1.99489

 124    H 13  s      Val( 1s)     0.63744       0.06451
 125    H 13  s      Ryd( 2s)     0.00416       0.43472
 126    H 13  px     Ryd( 2p)     0.00052       1.85071
 127    H 13  py     Ryd( 2p)     0.00118       2.18557
 128    H 13  pz     Ryd( 2p)     0.00067       1.76984

 129    H 14  s      Val( 1s)     0.77247       0.05440
 130    H 14  s      Ryd( 2s)     0.00266       0.33349
 131    H 14  px     Ryd( 2p)     0.00016       1.80211
 132    H 14  py     Ryd( 2p)     0.00079       2.13549
 133    H 14  pz     Ryd( 2p)     0.00019       1.77927

 134    H 15  s      Val( 1s)     0.79885       0.04701
 135    H 15  s      Ryd( 2s)     0.00464       0.33694
 136    H 15  px     Ryd( 2p)     0.00019       1.83985
 137    H 15  py     Ryd( 2p)     0.00049       1.98659
 138    H 15  pz     Ryd( 2p)     0.00042       1.93453

 139    H 16  s      Val( 1s)     0.73732       0.03988
 140    H 16  s      Ryd( 2s)     0.00258       0.31152
 141    H 16  px     Ryd( 2p)     0.00025       1.78889
 142    H 16  py     Ryd( 2p)     0.00069       2.12542
 143    H 16  pz     Ryd( 2p)     0.00020       1.75881

 144    H 17  s      Val( 1s)     0.72277       0.05518
 145    H 17  s      Ryd( 2s)     0.00426       0.30952
 146    H 17  px     Ryd( 2p)     0.00026       1.78923
 147    H 17  py     Ryd( 2p)     0.00050       1.99224
 148    H 17  pz     Ryd( 2p)     0.00032       1.90574


 Summary of Natural Population Analysis:

                                     Natural Population
             Natural    ---------------------------------------------
  Atom No    Charge        Core      Valence    Rydberg      Total
 --------------------------------------------------------------------
    C  1   -0.65337      1.99922     4.64669    0.00747     6.65337
    C  2   -0.22189      1.99918     4.21002    0.01269     6.22189
    N  3   -0.70248      1.99932     5.68765    0.01551     7.70248
    C  4   -0.20646      1.99916     4.19384    0.01346     6.20646
    C  5   -0.55232      1.99902     4.54355    0.00974     6.55232
    C  6    0.29046      1.99923     3.67372    0.03659     5.70954
    N  7   -0.32550      1.99957     5.30834    0.01759     7.32550
    H  8    0.22952      0.00000     0.76802    0.00246     0.77048
    H  9    0.22514      0.00000     0.77067    0.00420     0.77486
    H 10    0.21257      0.00000     0.78431    0.00312     0.78743
    H 11    0.21305      0.00000     0.78311    0.00385     0.78695
    H 12    0.18528      0.00000     0.80880    0.00593     0.81472
    H 13    0.35603      0.00000     0.63744    0.00653     0.64397
    H 14    0.22373      0.00000     0.77247    0.00380     0.77627
    H 15    0.19541      0.00000     0.79885    0.00574     0.80459
    H 16    0.25896      0.00000     0.73732    0.00372     0.74104
    H 17    0.27188      0.00000     0.72277    0.00535     0.72812
 ====================================================================
 * Total *  0.00000     13.99471    39.84756    0.15774    54.00000

                                 Natural Population
 ---------------------------------------------------------
   Core                      13.99471 ( 99.9622% of   14)
   Valence                   39.84756 ( 99.6189% of   40)
   Natural Minimal Basis     53.84226 ( 99.7079% of   54)
   Natural Rydberg Basis      0.15774 (  0.2921% of   54)
 ---------------------------------------------------------

    Atom No         Natural Electron Configuration
 ----------------------------------------------------------------------------
      C  1      [core]2s( 1.09)2p( 3.55)
      C  2      [core]2s( 1.00)2p( 3.21)3p( 0.01)
      N  3      [core]2s( 1.33)2p( 4.36)3p( 0.01)
      C  4      [core]2s( 0.99)2p( 3.20)3p( 0.01)
      C  5      [core]2s( 1.04)2p( 3.51)3p( 0.01)
      C  6      [core]2s( 0.82)2p( 2.85)3s( 0.01)3p( 0.03)
      N  7      [core]2s( 1.58)2p( 3.73)3s( 0.01)3d( 0.01)
      H  8            1s( 0.77)
      H  9            1s( 0.77)
      H 10            1s( 0.78)
      H 11            1s( 0.78)
      H 12            1s( 0.81)
      H 13            1s( 0.64)
      H 14            1s( 0.77)
      H 15            1s( 0.80)
      H 16            1s( 0.74)
      H 17            1s( 0.72)


 NATURAL BOND ORBITAL ANALYSIS:

                            Occupancies       Lewis Structure    Low   High
         Max    Occ     -------------------  -----------------   occ   occ
  Cycle  Ctr   Thresh    Lewis   non-Lewis     CR  BD  nC  LP    (L)   (NL)
 ============================================================================
    1     2     1.90    53.51278   0.48722      7  18   0   2     0      0
 ----------------------------------------------------------------------------

 Structure accepted: No low occupancy Lewis orbitals

 -------------------------------------------------------
   Core                     13.99471 ( 99.962% of  14)
   Valence Lewis            39.51808 ( 98.795% of  40)
  ==================      =============================
   Total Lewis              53.51278 ( 99.098% of  54)
  -----------------------------------------------------
   Valence non-Lewis         0.38156 (  0.707% of  54)
   Rydberg non-Lewis         0.10565 (  0.196% of  54)
  ==================      =============================
   Total non-Lewis           0.48722 (  0.902% of  54)
 -------------------------------------------------------


     (Occupancy)   Bond orbital / Coefficients / Hybrids
 ------------------ Lewis ------------------------------------------------------
   1. (1.99922) CR ( 1) C  1            s(100.00%)
                                         1.0000  0.0000  0.0000  0.0000  0.0000
                                         0.0000  0.0000  0.0000  0.0000  0.0000
                                         0.0000  0.0000  0.0000  0.0000
   2. (1.99918) CR ( 1) C  2            s(100.00%)
                                         1.0000  0.0000  0.0000  0.0000  0.0000
                                         0.0000  0.0000  0.0000  0.0000  0.0000
                                         0.0000  0.0000  0.0000  0.0000
   3. (1.99932) CR ( 1) N  3            s(100.00%)
                                         1.0000  0.0000  0.0000  0.0000  0.0000
                                         0.0000  0.0000  0.0000  0.0000  0.0000
                                         0.0000  0.0000  0.0000  0.0000
   4. (1.99916) CR ( 1) C  4            s(100.00%)
                                         1.0000  0.0000  0.0000  0.0000  0.0000
                                         0.0000  0.0000  0.0000  0.0000  0.0000
                                         0.0000  0.0000  0.0000  0.0000
   5. (1.99902) CR ( 1) C  5            s(100.00%)
                                         1.0000  0.0000  0.0000  0.0000  0.0000
                                         0.0000  0.0000  0.0000  0.0000  0.0000
                                         0.0000  0.0000  0.0000  0.0000
   6. (1.99923) CR ( 1) C  6            s(100.00%)
                                         1.0000  0.0000  0.0000  0.0000  0.0000
                                         0.0000  0.0000  0.0000  0.0000  0.0000
                                         0.0000  0.0000  0.0000  0.0000
   7. (1.99957) CR ( 1) N  7            s(100.00%)
                                         1.0000  0.0000  0.0000  0.0000  0.0000
                                         0.0000  0.0000  0.0000  0.0000  0.0000
                                         0.0000  0.0000  0.0000  0.0000
   8. (1.90758) LP ( 1) N  3            s( 16.07%)p 5.22( 83.87%)d 0.00(  0.05%)
                                         0.0000  0.4008 -0.0097 -0.2902 -0.0057
                                        -0.6138 -0.0207 -0.6140 -0.0197 -0.0087
                                        -0.0090 -0.0177  0.0080 -0.0031
   9. (1.96914) LP ( 1) N  7            s( 51.72%)p 0.93( 48.23%)d 0.00(  0.05%)
                                         0.0000  0.7186 -0.0283  0.6928  0.0299
                                         0.0108  0.0006 -0.0350 -0.0017 -0.0006
                                         0.0021  0.0000 -0.0197  0.0113
  10. (1.98659) BD ( 1) C  1- C  2
               ( 49.61%)   0.7044* C  1 s( 30.03%)p 2.33( 69.93%)d 0.00(  0.04%)
                                         0.0000  0.5479  0.0079  0.8359  0.0058
                                        -0.0185 -0.0025  0.0124  0.0070  0.0001
                                         0.0000 -0.0003  0.0163 -0.0096
               ( 50.39%)   0.7099* C  2 s( 29.14%)p 2.43( 70.83%)d 0.00(  0.04%)
                                         0.0000  0.5395  0.0173 -0.8412  0.0051
                                         0.0220 -0.0027 -0.0097  0.0077 -0.0020
                                         0.0031 -0.0007  0.0164 -0.0096
  11. (1.98438) BD ( 1) C  1- H  8
               ( 61.42%)   0.7837* C  1 s( 23.32%)p 3.29( 76.64%)d 0.00(  0.04%)
                                         0.0000  0.4829  0.0009 -0.3329 -0.0098
                                        -0.2296  0.0028  0.7763 -0.0085  0.0023
                                        -0.0095 -0.0077  0.0008  0.0143
               ( 38.58%)   0.6211* H  8 s( 99.90%)p 0.00(  0.10%)
                                         0.9995 -0.0004  0.0127  0.0081 -0.0270
  12. (1.98719) BD ( 1) C  1- H  9
               ( 61.50%)   0.7842* C  1 s( 23.57%)p 3.24( 76.39%)d 0.00(  0.04%)
                                         0.0000  0.4855 -0.0034 -0.3212 -0.0113
                                        -0.5467  0.0042 -0.6014  0.0054  0.0068
                                         0.0072  0.0145 -0.0044  0.0046
               ( 38.50%)   0.6205* H  9 s( 99.91%)p 0.00(  0.09%)
                                         0.9995 -0.0034  0.0112  0.0191  0.0213
  13. (1.98676) BD ( 1) C  1- H 10
               ( 60.80%)   0.7798* C  1 s( 23.06%)p 3.33( 76.90%)d 0.00(  0.04%)
                                         0.0000  0.4802 -0.0040 -0.2939 -0.0162
                                         0.8046 -0.0063 -0.1867  0.0045 -0.0088
                                         0.0015 -0.0067 -0.0130 -0.0087
               ( 39.20%)   0.6261* H 10 s( 99.90%)p 0.00(  0.10%)
                                         0.9995 -0.0023  0.0125 -0.0278  0.0059
  14. (1.98388) BD ( 1) C  2- N  3
               ( 38.81%)   0.6230* C  2 s( 24.05%)p 3.15( 75.84%)d 0.00(  0.12%)
                                         0.0000  0.4901  0.0174  0.3288 -0.0026
                                         0.2180  0.0008 -0.7758 -0.0299  0.0047
                                        -0.0188 -0.0138  0.0026  0.0241
               ( 61.19%)   0.7822* N  3 s( 31.57%)p 2.17( 68.36%)d 0.00(  0.06%)
                                         0.0000  0.5619  0.0043 -0.3333  0.0103
                                        -0.2044  0.0077  0.7284  0.0000 -0.0062
                                        -0.0094 -0.0036  0.0035  0.0220
  15. (1.97517) BD ( 1) C  2- H 11
               ( 61.00%)   0.7811* C  2 s( 22.98%)p 3.35( 76.98%)d 0.00(  0.04%)
                                         0.0000  0.4793 -0.0091  0.2838 -0.0049
                                        -0.8068  0.0091  0.1956  0.0067 -0.0097
                                         0.0021 -0.0057 -0.0121 -0.0099
               ( 39.00%)   0.6245* H 11 s( 99.89%)p 0.00(  0.11%)
                                         0.9994 -0.0052 -0.0092  0.0311 -0.0085
  16. (1.98536) BD ( 1) C  2- H 12
               ( 60.36%)   0.7769* C  2 s( 23.91%)p 3.18( 76.05%)d 0.00(  0.04%)
                                         0.0000  0.4887 -0.0163  0.3205 -0.0049
                                         0.5480 -0.0140  0.5977  0.0032  0.0069
                                         0.0084  0.0157 -0.0045  0.0043
               ( 39.64%)   0.6296* H 12 s( 99.90%)p 0.00(  0.10%)
                                         0.9994 -0.0106 -0.0104 -0.0183 -0.0237
  17. (1.98375) BD ( 1) N  3- C  4
               ( 60.38%)   0.7771* N  3 s( 31.36%)p 2.19( 68.57%)d 0.00(  0.07%)
                                         0.0000  0.5600  0.0075  0.8264 -0.0090
                                         0.0220  0.0050 -0.0472  0.0079  0.0085
                                         0.0069 -0.0056  0.0190 -0.0120
               ( 39.62%)   0.6294* C  4 s( 24.95%)p 3.00( 74.94%)d 0.00(  0.11%)
                                         0.0000  0.4991  0.0199 -0.8648 -0.0239
                                        -0.0047 -0.0019  0.0289 -0.0116  0.0003
                                         0.0011 -0.0013  0.0290 -0.0158
  18. (1.97920) BD ( 1) N  3- H 13
               ( 68.48%)   0.8275* N  3 s( 20.96%)p 3.77( 78.96%)d 0.00(  0.08%)
                                         0.0000  0.4578  0.0023 -0.3471  0.0189
                                         0.7611 -0.0138 -0.2981  0.0199 -0.0103
                                        -0.0036 -0.0050 -0.0204 -0.0153
               ( 31.52%)   0.5615* H 13 s( 99.80%)p 0.00(  0.20%)
                                         0.9990 -0.0085  0.0201 -0.0353  0.0176
  19. (1.96325) BD ( 1) C  4- C  5
               ( 48.14%)   0.6938* C  4 s( 27.52%)p 2.63( 72.43%)d 0.00(  0.04%)
                                         0.0000  0.5244  0.0160  0.2756 -0.0083
                                         0.1390 -0.0022 -0.7930  0.0066  0.0010
                                        -0.0093 -0.0061  0.0005  0.0177
               ( 51.86%)   0.7201* C  5 s( 29.12%)p 2.43( 70.85%)d 0.00(  0.03%)
                                         0.0000  0.5396  0.0067 -0.2602  0.0003
                                        -0.1312  0.0007  0.7897 -0.0020  0.0000
                                        -0.0033 -0.0042  0.0016  0.0154
  20. (1.97538) BD ( 1) C  4- H 14
               ( 61.50%)   0.7842* C  4 s( 23.22%)p 3.30( 76.74%)d 0.00(  0.04%)
                                         0.0000  0.4818 -0.0092  0.2911  0.0044
                                        -0.7760  0.0111  0.2834  0.0033 -0.0101
                                         0.0017 -0.0081 -0.0121 -0.0068
               ( 38.50%)   0.6205* H 14 s( 99.88%)p 0.00(  0.12%)
                                         0.9994 -0.0052 -0.0125  0.0300 -0.0110
  21. (1.98555) BD ( 1) C  4- H 15
               ( 60.89%)   0.7803* C  4 s( 24.38%)p 3.10( 75.59%)d 0.00(  0.04%)
                                         0.0000  0.4935 -0.0149  0.2987  0.0035
                                         0.6146 -0.0129  0.5374  0.0023  0.0102
                                         0.0075  0.0133 -0.0065  0.0001
               ( 39.11%)   0.6254* H 15 s( 99.89%)p 0.00(  0.11%)
                                         0.9994 -0.0110 -0.0128 -0.0218 -0.0207
  22. (1.98611) BD ( 1) C  5- C  6
               ( 51.16%)   0.7152* C  5 s( 26.07%)p 2.83( 73.88%)d 0.00(  0.06%)
                                         0.0000  0.5106 -0.0005  0.8569  0.0011
                                         0.0165  0.0017 -0.0636 -0.0109  0.0011
                                        -0.0018 -0.0004  0.0208 -0.0117
               ( 48.84%)   0.6989* C  6 s( 53.49%)p 0.87( 46.48%)d 0.00(  0.03%)
                                         0.0000  0.7309  0.0266 -0.6805  0.0090
                                        -0.0109  0.0017  0.0365 -0.0136  0.0005
                                        -0.0024 -0.0002  0.0160 -0.0087
  23. (1.95618) BD ( 1) C  5- H 16
               ( 62.91%)   0.7932* C  5 s( 22.18%)p 3.51( 77.79%)d 0.00(  0.03%)
                                         0.0000  0.4709 -0.0018 -0.3174  0.0023
                                         0.7665 -0.0062 -0.2989 -0.0127 -0.0049
                                         0.0011 -0.0106 -0.0123 -0.0065
               ( 37.09%)   0.6090* H 16 s( 99.89%)p 0.00(  0.11%)
                                         0.9994 -0.0049  0.0128 -0.0282  0.0122
  24. (1.95586) BD ( 1) C  5- H 17
               ( 63.64%)   0.7977* C  5 s( 22.61%)p 3.42( 77.36%)d 0.00(  0.03%)
                                         0.0000  0.4755 -0.0020 -0.3106  0.0002
                                        -0.6280  0.0096 -0.5316 -0.0067  0.0038
                                         0.0028  0.0151 -0.0072  0.0015
               ( 36.36%)   0.6030* H 17 s( 99.89%)p 0.00(  0.11%)
                                         0.9994 -0.0062  0.0146  0.0235  0.0188
  25. (1.99567) BD ( 1) C  6- N  7
               ( 41.40%)   0.6435* C  6 s( 46.30%)p 1.16( 53.63%)d 0.00(  0.07%)
                                         0.0000  0.6796 -0.0336  0.7279  0.0676
                                         0.0176  0.0009 -0.0400 -0.0031  0.0009
                                        -0.0022 -0.0001  0.0233 -0.0132
               ( 58.60%)   0.7655* N  7 s( 48.45%)p 1.06( 51.31%)d 0.00(  0.23%)
                                         0.0000  0.6942  0.0506 -0.7153  0.0171
                                        -0.0051  0.0000  0.0334  0.0000  0.0010
                                        -0.0041 -0.0001  0.0420 -0.0239
  26. (1.98578) BD ( 2) C  6- N  7
               ( 45.75%)   0.6764* C  6 s(  0.00%)p 1.00( 99.88%)d 0.00(  0.12%)
                                         0.0000  0.0039  0.0001  0.0140  0.0006
                                        -0.9924  0.0195 -0.1158  0.0018 -0.0342
                                        -0.0040  0.0005  0.0009  0.0000
               ( 54.25%)   0.7365* N  7 s(  0.00%)p 1.00( 99.73%)d 0.00(  0.27%)
                                         0.0000  0.0040  0.0001  0.0055 -0.0001
                                        -0.9919  0.0129 -0.1154  0.0014  0.0513
                                         0.0060 -0.0026 -0.0011 -0.0007
  27. (1.98530) BD ( 3) C  6- N  7
               ( 46.15%)   0.6794* C  6 s(  0.00%)p 1.00( 99.88%)d 0.00(  0.12%)
                                         0.0000  0.0007  0.0067  0.0565  0.0036
                                        -0.1148  0.0033  0.9908 -0.0250 -0.0039
                                         0.0336  0.0008  0.0019 -0.0028
               ( 53.85%)   0.7338* N  7 s(  0.00%)p 1.00( 99.73%)d 0.00(  0.27%)
                                         0.0000  0.0024 -0.0018  0.0492 -0.0010
                                        -0.1150  0.0017  0.9907 -0.0136  0.0059
                                        -0.0511 -0.0011 -0.0028  0.0045
 ---------------- non-Lewis ----------------------------------------------------
  28. (0.00886) BD*( 1) C  1- C  2
               ( 50.39%)   0.7099* C  1 s( 30.03%)p 2.33( 69.93%)d 0.00(  0.04%)
                                         0.0000  0.5479  0.0079  0.8359  0.0058
                                        -0.0185 -0.0025  0.0124  0.0070  0.0001
                                         0.0000 -0.0003  0.0163 -0.0096
               ( 49.61%)  -0.7044* C  2 s( 29.14%)p 2.43( 70.83%)d 0.00(  0.04%)
                                         0.0000  0.5395  0.0173 -0.8412  0.0051
                                         0.0220 -0.0027 -0.0097  0.0077 -0.0020
                                         0.0031 -0.0007  0.0164 -0.0096
  29. (0.00532) BD*( 1) C  1- H  8
               ( 38.58%)   0.6211* C  1 s( 23.32%)p 3.29( 76.64%)d 0.00(  0.04%)
                                         0.0000 -0.4829 -0.0009  0.3329  0.0098
                                         0.2296 -0.0028 -0.7763  0.0085 -0.0023
                                         0.0095  0.0077 -0.0008 -0.0143
               ( 61.42%)  -0.7837* H  8 s( 99.90%)p 0.00(  0.10%)
                                        -0.9995  0.0004 -0.0127 -0.0081  0.0270
  30. (0.01040) BD*( 1) C  1- H  9
               ( 38.50%)   0.6205* C  1 s( 23.57%)p 3.24( 76.39%)d 0.00(  0.04%)
                                         0.0000 -0.4855  0.0034  0.3212  0.0113
                                         0.5467 -0.0042  0.6014 -0.0054 -0.0068
                                        -0.0072 -0.0145  0.0044 -0.0046
               ( 61.50%)  -0.7842* H  9 s( 99.91%)p 0.00(  0.09%)
                                        -0.9995  0.0034 -0.0112 -0.0191 -0.0213
  31. (0.01035) BD*( 1) C  1- H 10
               ( 39.20%)   0.6261* C  1 s( 23.06%)p 3.33( 76.90%)d 0.00(  0.04%)
                                         0.0000 -0.4802  0.0040  0.2939  0.0162
                                        -0.8046  0.0063  0.1867 -0.0045  0.0088
                                        -0.0015  0.0067  0.0130  0.0087
               ( 60.80%)  -0.7798* H 10 s( 99.90%)p 0.00(  0.10%)
                                        -0.9995  0.0023 -0.0125  0.0278 -0.0059
  32. (0.01918) BD*( 1) C  2- N  3
               ( 61.19%)   0.7822* C  2 s( 24.05%)p 3.15( 75.84%)d 0.00(  0.12%)
                                         0.0000  0.4901  0.0174  0.3288 -0.0026
                                         0.2180  0.0008 -0.7758 -0.0299  0.0047
                                        -0.0188 -0.0138  0.0026  0.0241
               ( 38.81%)  -0.6230* N  3 s( 31.57%)p 2.17( 68.36%)d 0.00(  0.06%)
                                         0.0000  0.5619  0.0043 -0.3333  0.0103
                                        -0.2044  0.0077  0.7284  0.0000 -0.0062
                                        -0.0094 -0.0036  0.0035  0.0220
  33. (0.02254) BD*( 1) C  2- H 11
               ( 39.00%)   0.6245* C  2 s( 22.98%)p 3.35( 76.98%)d 0.00(  0.04%)
                                         0.0000 -0.4793  0.0091 -0.2838  0.0049
                                         0.8068 -0.0091 -0.1956 -0.0067  0.0097
                                        -0.0021  0.0057  0.0121  0.0099
               ( 61.00%)  -0.7811* H 11 s( 99.89%)p 0.00(  0.11%)
                                        -0.9994  0.0052  0.0092 -0.0311  0.0085
  34. (0.03714) BD*( 1) C  2- H 12
               ( 39.64%)   0.6296* C  2 s( 23.91%)p 3.18( 76.05%)d 0.00(  0.04%)
                                         0.0000 -0.4887  0.0163 -0.3205  0.0049
                                        -0.5480  0.0140 -0.5977 -0.0032 -0.0069
                                        -0.0084 -0.0157  0.0045 -0.0043
               ( 60.36%)  -0.7769* H 12 s( 99.90%)p 0.00(  0.10%)
                                        -0.9994  0.0106  0.0104  0.0183  0.0237
  35. (0.01535) BD*( 1) N  3- C  4
               ( 39.62%)   0.6294* N  3 s( 31.36%)p 2.19( 68.57%)d 0.00(  0.07%)
                                         0.0000 -0.5600 -0.0075 -0.8264  0.0090
                                        -0.0220 -0.0050  0.0472 -0.0079 -0.0085
                                        -0.0069  0.0056 -0.0190  0.0120
               ( 60.38%)  -0.7771* C  4 s( 24.95%)p 3.00( 74.94%)d 0.00(  0.11%)
                                         0.0000 -0.4991 -0.0199  0.8648  0.0239
                                         0.0047  0.0019 -0.0289  0.0116 -0.0003
                                        -0.0011  0.0013 -0.0290  0.0158
  36. (0.02147) BD*( 1) N  3- H 13
               ( 31.52%)   0.5615* N  3 s( 20.96%)p 3.77( 78.96%)d 0.00(  0.08%)
                                         0.0000 -0.4578 -0.0023  0.3471 -0.0189
                                        -0.7611  0.0138  0.2981 -0.0199  0.0103
                                         0.0036  0.0050  0.0204  0.0153
               ( 68.48%)  -0.8275* H 13 s( 99.80%)p 0.00(  0.20%)
                                        -0.9990  0.0085 -0.0201  0.0353 -0.0176
  37. (0.02029) BD*( 1) C  4- C  5
               ( 51.86%)   0.7201* C  4 s( 27.52%)p 2.63( 72.43%)d 0.00(  0.04%)
                                         0.0000  0.5244  0.0160  0.2756 -0.0083
                                         0.1390 -0.0022 -0.7930  0.0066  0.0010
                                        -0.0093 -0.0061  0.0005  0.0177
               ( 48.14%)  -0.6938* C  5 s( 29.12%)p 2.43( 70.85%)d 0.00(  0.03%)
                                         0.0000  0.5396  0.0067 -0.2602  0.0003
                                        -0.1312  0.0007  0.7897 -0.0020  0.0000
                                        -0.0033 -0.0042  0.0016  0.0154
  38. (0.02077) BD*( 1) C  4- H 14
               ( 38.50%)   0.6205* C  4 s( 23.22%)p 3.30( 76.74%)d 0.00(  0.04%)
                                         0.0000 -0.4818  0.0092 -0.2911 -0.0044
                                         0.7760 -0.0111 -0.2834 -0.0033  0.0101
                                        -0.0017  0.0081  0.0121  0.0068
               ( 61.50%)  -0.7842* H 14 s( 99.88%)p 0.00(  0.12%)
                                        -0.9994  0.0052  0.0125 -0.0300  0.0110
  39. (0.03790) BD*( 1) C  4- H 15
               ( 39.11%)   0.6254* C  4 s( 24.38%)p 3.10( 75.59%)d 0.00(  0.04%)
                                         0.0000 -0.4935  0.0149 -0.2987 -0.0035
                                        -0.6146  0.0129 -0.5374 -0.0023 -0.0102
                                        -0.0075 -0.0133  0.0065 -0.0001
               ( 60.89%)  -0.7803* H 15 s( 99.89%)p 0.00(  0.11%)
                                        -0.9994  0.0110  0.0128  0.0218  0.0207
  40. (0.02402) BD*( 1) C  5- C  6
               ( 48.84%)   0.6989* C  5 s( 26.07%)p 2.83( 73.88%)d 0.00(  0.06%)
                                         0.0000 -0.5106  0.0005 -0.8569 -0.0011
                                        -0.0165 -0.0017  0.0636  0.0109 -0.0011
                                         0.0018  0.0004 -0.0208  0.0117
               ( 51.16%)  -0.7152* C  6 s( 53.49%)p 0.87( 46.48%)d 0.00(  0.03%)
                                         0.0000 -0.7309 -0.0266  0.6805 -0.0090
                                         0.0109 -0.0017 -0.0365  0.0136 -0.0005
                                         0.0024  0.0002 -0.0160  0.0087
  41. (0.02012) BD*( 1) C  5- H 16
               ( 37.09%)   0.6090* C  5 s( 22.18%)p 3.51( 77.79%)d 0.00(  0.03%)
                                         0.0000 -0.4709  0.0018  0.3174 -0.0023
                                        -0.7665  0.0062  0.2989  0.0127  0.0049
                                        -0.0011  0.0106  0.0123  0.0065
               ( 62.91%)  -0.7932* H 16 s( 99.89%)p 0.00(  0.11%)
                                        -0.9994  0.0049 -0.0128  0.0282 -0.0122
  42. (0.01948) BD*( 1) C  5- H 17
               ( 36.36%)   0.6030* C  5 s( 22.61%)p 3.42( 77.36%)d 0.00(  0.03%)
                                         0.0000 -0.4755  0.0020  0.3106 -0.0002
                                         0.6280 -0.0096  0.5316  0.0067 -0.0038
                                        -0.0028 -0.0151  0.0072 -0.0015
               ( 63.64%)  -0.7977* H 17 s( 99.89%)p 0.00(  0.11%)
                                        -0.9994  0.0062 -0.0146 -0.0235 -0.0188
  43. (0.01206) BD*( 1) C  6- N  7
               ( 58.60%)   0.7655* C  6 s( 46.30%)p 1.16( 53.63%)d 0.00(  0.07%)
                                         0.0000  0.6796 -0.0336  0.7279  0.0676
                                         0.0176  0.0009 -0.0400 -0.0031  0.0009
                                        -0.0022 -0.0001  0.0233 -0.0132
               ( 41.40%)  -0.6435* N  7 s( 48.45%)p 1.06( 51.31%)d 0.00(  0.23%)
                                         0.0000  0.6942  0.0506 -0.7153  0.0171
                                        -0.0051  0.0000  0.0334  0.0000  0.0010
                                        -0.0041 -0.0001  0.0420 -0.0239
  44. (0.04235) BD*( 2) C  6- N  7
               ( 54.25%)   0.7365* C  6 s(  0.00%)p 1.00( 99.88%)d 0.00(  0.12%)
                                         0.0000  0.0039  0.0001  0.0140  0.0006
                                        -0.9924  0.0195 -0.1158  0.0018 -0.0342
                                        -0.0040  0.0005  0.0009  0.0000
               ( 45.75%)  -0.6764* N  7 s(  0.00%)p 1.00( 99.73%)d 0.00(  0.27%)
                                         0.0000  0.0040  0.0001  0.0055 -0.0001
                                        -0.9919  0.0129 -0.1154  0.0014  0.0513
                                         0.0060 -0.0026 -0.0011 -0.0007
  45. (0.03398) BD*( 3) C  6- N  7
               ( 53.85%)   0.7338* C  6 s(  0.00%)p 1.00( 99.88%)d 0.00(  0.12%)
                                         0.0000  0.0007  0.0067  0.0565  0.0036
                                        -0.1148  0.0033  0.9908 -0.0250 -0.0039
                                         0.0336  0.0008  0.0019 -0.0028
               ( 46.15%)  -0.6794* N  7 s(  0.00%)p 1.00( 99.73%)d 0.00(  0.27%)
                                         0.0000  0.0024 -0.0018  0.0492 -0.0010
                                        -0.1150  0.0017  0.9907 -0.0136  0.0059
                                        -0.0511 -0.0011 -0.0028  0.0045
  46. (0.00287) RY ( 1) C  1            s(  5.03%)p17.86( 89.80%)d 1.03(  5.17%)
                                         0.0000  0.0078  0.2241 -0.0007  0.2685
                                         0.0074  0.3367 -0.0139 -0.8440  0.0806
                                        -0.2080 -0.0287  0.0184  0.0286
  47. (0.00150) RY ( 2) C  1            s(  0.13%)p99.99( 76.98%)d99.99( 22.89%)
                                         0.0000  0.0005  0.0360  0.0002 -0.0176
                                        -0.0128 -0.8170 -0.0059 -0.3191 -0.4282
                                        -0.1735 -0.1046 -0.0555 -0.0388
  48. (0.00036) RY ( 3) C  1            s( 10.20%)p 8.77( 89.41%)d 0.04(  0.39%)
                                         0.0000  0.0111  0.3191 -0.0207  0.8825
                                         0.0030 -0.1389  0.0002  0.3092  0.0187
                                         0.0144 -0.0154  0.0502 -0.0249
  49. (0.00011) RY ( 4) C  1            s( 69.42%)p 0.14(  9.87%)d 0.30( 20.71%)
                                         0.0000 -0.0055  0.8331 -0.0029 -0.3139
                                        -0.0020 -0.0124  0.0024  0.0038 -0.0519
                                         0.4421 -0.0824  0.0075 -0.0466
  50. (0.00009) RY ( 5) C  1            s(  5.11%)p 1.90(  9.70%)d16.68( 85.19%)
  51. (0.00002) RY ( 6) C  1            s(  0.01%)p 1.00(  1.53%)d64.33( 98.46%)
  52. (0.00000) RY ( 7) C  1            s(  2.02%)p 2.08(  4.20%)d46.41( 93.78%)
  53. (0.00000) RY ( 8) C  1            s(  5.95%)p 3.03( 18.01%)d12.78( 76.04%)
  54. (0.00000) RY ( 9) C  1            s(  2.16%)p 0.29(  0.63%)d45.04( 97.21%)
  55. (0.00360) RY ( 1) C  2            s( 27.06%)p 2.17( 58.85%)d 0.52( 14.09%)
                                         0.0000 -0.0005  0.5202  0.0197  0.7666
                                        -0.0015  0.0093  0.0173 -0.0088  0.0796
                                        -0.2357  0.0004  0.1867 -0.2102
  56. (0.00253) RY ( 2) C  2            s(  0.01%)p 1.00( 82.67%)d 0.21( 17.32%)
                                         0.0000  0.0058  0.0062  0.0072 -0.0282
                                         0.0252  0.7237 -0.0065  0.5490 -0.1700
                                        -0.0615 -0.3065 -0.1187 -0.1803
  57. (0.00107) RY ( 3) C  2            s(  4.00%)p 4.48( 17.89%)d19.54( 78.11%)
                                         0.0000 -0.0027  0.1999  0.0045 -0.3360
                                         0.0023 -0.2568  0.0077 -0.0029  0.5046
                                        -0.1129 -0.5542 -0.0329 -0.4534
  58. (0.00072) RY ( 4) C  2            s(  5.37%)p 6.78( 36.44%)d10.83( 58.19%)
                                         0.0000 -0.0029  0.2318  0.0012 -0.2525
                                        -0.0099 -0.2117  0.0069  0.5056  0.1082
                                        -0.5849  0.2006  0.1111  0.4189
  59. (0.00048) RY ( 5) C  2            s( 11.65%)p 5.09( 59.27%)d 2.50( 29.08%)
                                         0.0000 -0.0069  0.3413 -0.0065 -0.3348
                                         0.0013  0.3230  0.0372 -0.6122 -0.3325
                                        -0.4076 -0.0863  0.0625  0.0526
  60. (0.00023) RY ( 6) C  2            s( 44.90%)p 0.26( 11.47%)d 0.97( 43.63%)
                                         0.0000 -0.0018  0.6701  0.0168 -0.2994
                                        -0.0011  0.0160 -0.0044  0.1565 -0.0657
                                         0.5945  0.2572  0.1050 -0.0360
  61. (0.00017) RY ( 7) C  2            s(  3.06%)p 3.56( 10.92%)d28.07( 86.02%)
                                         0.0000 -0.0026  0.1750 -0.0142  0.1442
                                        -0.0087  0.2477  0.0222 -0.1620  0.4667
                                         0.1768 -0.2628 -0.3407  0.6527
  62. (0.00006) RY ( 8) C  2            s(  2.76%)p 8.20( 22.66%)d26.99( 74.58%)
  63. (0.00000) RY ( 9) C  2            s(  1.10%)p 0.14(  0.15%)d89.91( 98.75%)
  64. (0.00488) RY ( 1) N  3            s( 24.70%)p 2.87( 70.94%)d 0.18(  4.36%)
                                         0.0000 -0.0060  0.4970 -0.0074  0.2710
                                        -0.0232  0.5542 -0.0182  0.5726 -0.0415
                                        -0.1553 -0.0991  0.0199 -0.0867
  65. (0.00149) RY ( 2) N  3            s(  5.84%)p14.08( 82.25%)d 2.04( 11.91%)
                                         0.0000 -0.0057  0.2417  0.0078  0.7892
                                        -0.0020 -0.2269  0.0027 -0.3848  0.1299
                                        -0.0610  0.1261  0.2188 -0.1863
  66. (0.00130) RY ( 3) N  3            s( 10.97%)p 6.38( 69.97%)d 1.74( 19.07%)
                                         0.0000 -0.0063  0.3311  0.0011 -0.1613
                                        -0.0065 -0.6924  0.0048  0.4407  0.2158
                                        -0.2937  0.1510  0.1067  0.1536
  67. (0.00029) RY ( 4) N  3            s(  0.82%)p 2.24(  1.83%)d99.99( 97.36%)
                                         0.0000  0.0012  0.0903  0.0049 -0.0895
                                         0.0070  0.0528 -0.0077 -0.0859 -0.7304
                                        -0.1825  0.5487  0.3000  0.1253
  68. (0.00017) RY ( 5) N  3            s( 19.73%)p 2.69( 53.13%)d 1.38( 27.14%)
                                         0.0000  0.0055  0.4441 -0.0144 -0.4379
                                         0.0230  0.2718 -0.0062 -0.5147  0.3490
                                        -0.3529  0.0087  0.1581  0.0023
  69. (0.00008) RY ( 6) N  3            s( 18.95%)p 0.43(  8.19%)d 3.84( 72.86%)
  70. (0.00007) RY ( 7) N  3            s( 17.76%)p 0.34(  6.04%)d 4.29( 76.20%)
  71. (0.00001) RY ( 8) N  3            s(  0.03%)p37.14(  1.05%)d99.99( 98.92%)
  72. (0.00000) RY ( 9) N  3            s(  1.24%)p 5.51(  6.83%)d74.16( 91.93%)
  73. (0.00336) RY ( 1) C  4            s( 30.13%)p 1.84( 55.47%)d 0.48( 14.40%)
                                         0.0000 -0.0092  0.5488  0.0100 -0.3267
                                        -0.0112 -0.4814  0.0217  0.4643  0.0842
                                        -0.3426  0.0570  0.0255  0.1250
  74. (0.00303) RY ( 2) C  4            s(  8.13%)p 9.11( 74.13%)d 2.18( 17.73%)
                                         0.0000  0.0035  0.2852 -0.0063  0.2784
                                         0.0196  0.6748  0.0116  0.4560 -0.2389
                                        -0.2565 -0.2260 -0.0231 -0.0534
  75. (0.00146) RY ( 3) C  4            s(  5.54%)p12.18( 67.53%)d 4.86( 26.93%)
                                         0.0000  0.0053  0.2354  0.0023  0.6849
                                        -0.0021 -0.3253 -0.0006 -0.3169 -0.2920
                                        -0.3100  0.1937  0.2004 -0.1012
  76. (0.00095) RY ( 4) C  4            s(  1.81%)p11.15( 20.15%)d43.18( 78.05%)
                                         0.0000  0.0016  0.1344  0.0022  0.3954
                                        -0.0103  0.0053 -0.0069  0.2119  0.7859
                                         0.2448  0.0243  0.2155 -0.2363
  77. (0.00069) RY ( 5) C  4            s( 22.43%)p 2.57( 57.69%)d 0.89( 19.88%)
                                         0.0000 -0.0081  0.4735  0.0341 -0.3406
                                         0.0046  0.2806  0.0142 -0.6171  0.2057
                                        -0.1872 -0.2070  0.1970 -0.1994
  78. (0.00017) RY ( 6) C  4            s( 16.59%)p 0.16(  2.68%)d 4.87( 80.73%)
                                         0.0000 -0.0046  0.4073  0.0182 -0.1070
                                        -0.0013  0.1050 -0.0005  0.0633 -0.3443
                                         0.6677  0.4236  0.2390 -0.0803
  79. (0.00011) RY ( 7) C  4            s( 11.63%)p 0.87( 10.10%)d 6.73( 78.27%)
                                         0.0000  0.0045  0.3410 -0.0206  0.2343
                                        -0.0033  0.0483  0.0116 -0.2078  0.1501
                                         0.2205 -0.0851 -0.4523  0.7069
  80. (0.00007) RY ( 8) C  4            s(  1.91%)p 6.43( 12.29%)d44.88( 85.79%)
  81. (0.00000) RY ( 9) C  4            s(  1.75%)p 0.15(  0.26%)d55.90( 97.99%)
  82. (0.00346) RY ( 1) C  5            s(  6.25%)p14.05( 87.86%)d 0.94(  5.89%)
                                         0.0000  0.0015  0.2501 -0.0031 -0.9369
                                         0.0013 -0.0182 -0.0030  0.0221  0.0188
                                        -0.2114 -0.0075  0.0842 -0.0817
  83. (0.00226) RY ( 2) C  5            s(  0.09%)p99.99( 82.33%)d99.99( 17.58%)
                                         0.0000 -0.0004  0.0294 -0.0002  0.0301
                                        -0.0191 -0.8888 -0.0026 -0.1791 -0.1556
                                        -0.0226 -0.3664 -0.0628 -0.1136
  84. (0.00071) RY ( 3) C  5            s( 16.65%)p 3.15( 52.42%)d 1.86( 30.93%)
                                         0.0000 -0.0128  0.4078 -0.0013  0.1979
                                        -0.0006  0.1382 -0.0028 -0.6826  0.1049
                                        -0.5191 -0.0219  0.0321  0.1653
  85. (0.00062) RY ( 4) C  5            s( 51.78%)p 0.62( 31.88%)d 0.32( 16.33%)
                                         0.0000  0.0057  0.7196 -0.0082  0.2632
                                         0.0034 -0.1075 -0.0070  0.4877  0.1011
                                        -0.0387  0.0766  0.3108 -0.2217
  86. (0.00038) RY ( 5) C  5            s(  0.25%)p 1.51(  0.37%)d99.99( 99.38%)
                                         0.0000  0.0000  0.0496  0.0008  0.0170
                                         0.0035 -0.0582 -0.0005  0.0048 -0.8612
[...]
 10 H               -12.7      -7.2      -2.6      -6.7      -0.6      -9.9
 11 H               -12.3     -14.2      -4.7      -2.5      -2.0     -11.9
 12 H                -0.2      -0.4      -0.1      -0.6      -0.8      -0.6
 13 H                 0.4      -0.1       0.0      -0.3      -0.0      -0.0
 14 H                 0.3       0.0      -0.2      -0.1      -0.0       0.0

                     60        61        62        63        64        65   
                   0.00000   0.00000   0.00000   0.00000   0.00000   0.00000
                   0.00017   0.00006   0.00000   0.00488   0.00149   0.00130
                  --------  --------  --------  --------  --------  --------
  0 C                -3.0      -3.8      -2.8       0.3      -1.9      -0.0
  1 C               110.7     120.6     109.9      -6.8     -19.8      -6.1
  2 N                -1.8      -1.9      -1.3     116.1     139.4     132.1
  3 C                 0.1       0.1      -0.1      -8.0     -11.7     -12.1
  4 C                -0.3      -0.0       0.0       0.1      -0.4      -2.0
  5 C                 0.1       0.0      -0.0      -0.3      -0.8      -1.2
  6 N                 0.0       0.0      -0.0      -0.0      -0.1      -0.1
  7 H                -0.1       0.0      -0.0      -0.0      -0.4      -0.0
  8 H                -0.0       0.0       0.0      -0.3       0.1      -0.0
  9 H                 0.2       0.2       0.0       0.0       0.1      -0.0
 10 H                -2.3     -13.3      -3.0       0.2      -0.1       0.3
 11 H                -2.6      -1.8      -2.7      -0.0       0.1      -0.2
 12 H                -0.9       0.2      -0.0      -1.1      -4.5     -10.6
 13 H                -0.0      -0.1      -0.0       0.1       0.2      -0.2
 14 H                 0.1      -0.0      -0.0      -0.0      -0.2       0.2
 16 H                 0.0      -0.0      -0.0      -0.4      -0.1       0.1

                     66        67        68        69        70        71   
                   0.00000   0.00000   0.00000   0.00000   0.00000   0.00000
                   0.00029   0.00017   0.00008   0.00007   0.00001   0.00000
                  --------  --------  --------  --------  --------  --------
  0 C                -0.1      -0.9      -0.6       1.1      -0.0      -0.0
  1 C                -1.6     -12.1      -4.0      -9.4      -0.5      -1.1
  2 N               104.8     132.6     118.2     116.0     103.3     106.8
  3 C                -0.9     -18.1     -13.1      -5.2      -0.4      -1.5
  4 C                -0.0      -0.4       1.6      -0.7      -0.1      -0.0
  5 C                -0.0      -0.3      -0.6      -0.3       0.0       0.0
 10 H                 0.0       0.4      -0.0       0.1      -0.0      -0.0
 11 H                -0.1       0.2      -0.0       0.1      -0.0      -0.0
 12 H                -2.2      -2.1      -1.6      -1.5      -2.1      -4.1
 13 H                -0.1       0.6       0.2      -0.1      -0.1      -0.0
 14 H                -0.0       0.1       0.1      -0.1      -0.0      -0.0

                     72        73        74        75        76        77   
                   0.00000   0.00000   0.00000   0.00000   0.00000   0.00000
                   0.00336   0.00303   0.00146   0.00095   0.00069   0.00017
                  --------  --------  --------  --------  --------  --------
  0 C                -0.9      -0.0      -0.4      -0.0       0.1      -0.2
  1 C               -17.2      -0.7      -3.9      -0.0      -1.5      -0.1
  2 N               -19.4      -5.0      -7.2      -3.9     -22.0      -9.3
  3 C               168.7     144.8     148.6     117.3     182.5     135.2
  4 C                -3.7      -9.4     -20.8      -1.0     -58.5     -14.9
  5 C                -1.0      -0.5      -4.8      -1.5       1.4       0.6
  6 N                -0.1      -0.1       0.0      -0.0       0.2       0.0
 10 H                 0.4      -0.1      -0.1      -0.1      -0.0      -0.0
 11 H                 0.1       0.0      -0.5      -0.0      -0.0       0.0
 12 H                -0.3      -0.4      -0.3      -0.6      -1.3      -1.2
 13 H               -23.4      -1.1      -8.1      -4.7      -0.5      -3.7
 14 H                -3.4     -27.6      -3.0      -5.2      -1.2      -6.6
 15 H                 0.0       0.1      -0.0       0.0       0.4       0.3
 16 H                 0.0       0.1       0.3      -0.2       0.5      -0.0

                     78        79        80        81        82        83   
                   0.00000   0.00000   0.00000   0.00000   0.00000   0.00000
                   0.00011   0.00007   0.00000   0.00346   0.00226   0.00071
                  --------  --------  --------  --------  --------  --------
  1 C                -0.4       0.1      -0.1      -0.3      -0.0      -0.0
  2 N                -3.2      -1.3      -2.1      -5.7      -0.2      -0.1
  3 C               131.5     119.3     112.5     -14.5     -12.1      -2.6
  4 C               -24.1      -4.7      -4.7     169.5     147.7     189.1
  5 C                 4.5       0.3       0.3     -31.0     -10.9     -52.5
  6 N                 0.0      -0.0       0.0      -4.8      -1.2      -7.9
 11 H                 0.1      -0.0      -0.0      -0.0      -0.0       0.0
 12 H                -0.2       0.2      -0.1      -0.4      -0.0      -0.1
 13 H                -4.0     -11.3      -2.9      -0.0       0.2      -0.1
 14 H                -3.7      -2.7      -3.0      -0.1       0.2      -0.1
 15 H                -0.2       0.2       0.0      -5.8     -10.3     -13.7
 16 H                -0.2       0.1       0.0      -6.8     -13.3     -11.8

                     84        85        86        87        88        89   
                   0.00000   0.00000   0.00000   0.00000   0.00000   0.00000
                   0.00062   0.00038   0.00012   0.00011   0.00001   0.00001
                  --------  --------  --------  --------  --------  --------
  0 C                -0.1      -0.0       0.0      -0.0       0.0      -0.0
  1 C                -0.8      -0.0       0.0      -0.1       0.0      -0.0
  2 N                 2.0      -0.0      -0.3       1.8      -0.1       0.0
  3 C               -81.5      -1.5      -0.4     -21.0      -2.8      -2.8
  4 C               298.8     107.5     133.0     159.3     120.8     114.2
  5 C               -94.6      -1.8     -14.3     -27.4      -1.5      -4.7
  6 N               -15.7      -0.1      -1.8      -3.3      -0.1      -0.7
 12 H                 0.1      -0.0       0.0       0.3      -0.0       0.0
 13 H                 0.7       0.1      -0.1      -0.2       0.2      -0.0
 14 H                 0.5      -0.1      -0.1      -0.1       0.2       0.0
 15 H                -4.6      -1.9      -8.3      -5.8      -7.2      -3.8
 16 H                -4.7      -2.2      -7.8      -3.6      -9.5      -2.3

                     90        91        92        93        94        95   
                   0.00000   0.00000   0.00000   0.00000   0.00000   0.00000
                   0.01993   0.00470   0.00267   0.00102   0.00006   0.00005
                  --------  --------  --------  --------  --------  --------
  2 N                -0.0      -1.2      -0.0      -1.8      -0.0      -0.3
  3 C                 0.8      -2.7       0.1       2.1       0.1       0.3
  4 C               -30.2     -30.6      -5.5    -131.3      -8.3      -9.0
  5 C               296.6     143.7     114.6     222.9     112.6     114.1
  6 N              -168.6      -7.7      -8.0       6.7      -4.8      -5.1
 13 H                 0.0      -0.5      -0.2      -0.1      -0.1      -0.3
 14 H                -0.0      -0.7      -0.2      -0.2      -0.2      -0.0
 15 H                 0.7      -0.1      -0.3       1.2       0.5       0.1
 16 H                 0.7      -0.1      -0.3       0.7       0.1       0.0

                     96        97        98        99       100       101   
                   0.00000   0.00000   0.00000   0.00000   0.00000   0.00000
                   0.00002   0.00001   0.00000   0.00086   0.00014   0.00009
                  --------  --------  --------  --------  --------  --------
  2 N                -0.0      -0.1      -0.0      -0.2      -0.0      -0.0
  3 C                -0.0      -0.3      -0.5       0.7      -0.1      -0.1
  4 C                -3.6     -13.5      -0.1     -39.7       2.8      -1.0
  5 C               104.9     116.2     101.2    -131.1      -4.1      -9.8
  6 N                -1.2      -2.7      -0.5     269.6     101.5     111.0
 15 H                -0.0      -0.2      -0.0       0.4      -0.0      -0.0
 16 H                 0.0       0.5       0.0       0.3      -0.0      -0.0

                    102       103       104       105       106       107   
                   0.00000   0.00000   0.00000   0.00000   0.00000   0.00000
                   0.00004   0.00000   0.00000   0.00000   0.00000   0.00000
                  --------  --------  --------  --------  --------  --------
  3 C                -0.3      -0.0      -0.0      -0.0      -0.0      -0.0
  4 C                -1.9      -0.0      -0.1      -0.1      -0.1      -0.0
  5 C               -14.1      -2.2      -1.9      -2.0      -3.5      -0.7
  6 N               116.4     102.3     102.0     102.1     103.7     100.8

                    108       109       110       111       112       113   
                   0.00000   0.00000   0.00000   0.00000   0.00000   0.00000
                   0.00140   0.00016   0.00012   0.00002   0.00317   0.00014
                  --------  --------  --------  --------  --------  --------
  0 C               -34.6      -2.9      -3.2      -8.1     -34.4      -3.0
  1 C                 0.6      -0.2      -0.1      -0.2       0.0      -0.1
  2 N                -0.3      -0.0      -0.1      -0.1      -0.1      -0.0
  7 H               135.5     103.9     104.2     108.7      -0.3      -0.3
  8 H                -0.3      -0.3      -0.4      -0.1     135.5     103.9
  9 H                -0.2      -0.4      -0.4      -0.1      -0.3      -0.3
 10 H                -0.3      -0.1      -0.0      -0.0      -0.3      -0.0
 11 H                -0.3      -0.0      -0.1      -0.0      -0.0      -0.1

                    114       115       116       117       118       119   
                   0.00000   0.00000   0.00000   0.00000   0.00000   0.00000
                   0.00012   0.00004   0.00202   0.00017   0.00014   0.00003
                  --------  --------  --------  --------  --------  --------
  0 C                -3.1      -8.1     -33.2      -3.0      -3.0      -8.2
  1 C                -0.1      -0.1      -0.0      -0.1      -0.1      -0.1
  2 N                -0.1      -0.0       0.1      -0.1      -0.1      -0.0
  7 H                -0.4      -0.1      -0.3      -0.3      -0.4      -0.1
  8 H               104.2     108.4      -0.2      -0.4      -0.4      -0.1
  9 H                -0.4      -0.1     135.9     104.0     104.0     108.6
 11 H                -0.0      -0.0      -0.3      -0.0      -0.1      -0.0
 12 H                -0.0      -0.0      -1.9      -0.0      -0.0      -0.1

                    120       121       122       123       124       125   
                   0.00000   0.00000   0.00000   0.00000   0.00000   0.00000
                   0.00274   0.00012   0.00009   0.00002   0.00495   0.00013
                  --------  --------  --------  --------  --------  --------
  0 C                 0.4       0.1      -0.4      -0.0       0.5      -0.1
  1 C               -35.4      -3.6      -4.2      -6.6     -32.4      -3.1
  2 N                 0.6      -0.1      -0.0      -0.4       0.3      -0.2
  3 C                 0.1      -0.2      -0.0      -0.1      -0.4      -0.1
  7 H                -0.3      -0.0      -0.1      -0.0      -0.3      -0.0
  8 H                -0.3      -0.1      -0.0      -0.0      -0.1      -0.0
  9 H                -0.1      -0.0      -0.1      -0.0      -0.3      -0.0
 10 H               137.9     104.7     105.4     107.2      -0.3      -0.6
 11 H                -0.3      -0.6      -0.5      -0.1     134.5     104.2
 13 H                -2.4      -0.0      -0.0      -0.0      -0.0      -0.0
 14 H                -0.0      -0.0      -0.0      -0.0      -1.5      -0.1

                    126       127       128       129       130       131   
                   0.00000   0.00000   0.00000   0.00000   0.00000   0.00000
                   0.00010   0.00002   0.00427   0.00082   0.00024   0.00003
                  --------  --------  --------  --------  --------  --------
  0 C                -0.5      -0.1      -0.5      -0.0      -0.0      -0.0
  1 C                -3.6      -7.0      -2.4      -0.1      -0.3      -0.1
  2 N                -0.1      -0.3      -5.2      -3.5      -3.3      -5.6
  3 C                 0.0      -0.0      -3.3      -0.1      -0.3       0.0
  4 C                -0.0      -0.0      -0.1      -0.0      -0.0      -0.1
  5 C                -0.0      -0.0      -0.1      -0.0      -0.0       0.0
  9 H                -0.0      -0.0      -1.8      -0.0      -0.1      -0.1
 10 H                -0.6      -0.0      -0.1      -0.0      -0.1      -0.0
 11 H               104.8     107.6       0.0      -0.0      -0.0       0.0
 12 H                -0.0      -0.0     115.8     104.0     104.3     105.9
 15 H                -0.0      -0.0      -2.0      -0.0      -0.0      -0.1

                    132       133       134       135       136       137   
                   0.00000   0.00000   0.00000   0.00000   0.00000   0.00000
                   0.00268   0.00012   0.00007   0.00003   0.00477   0.00012
                  --------  --------  --------  --------  --------  --------
  1 C                -0.1      -0.1       0.0      -0.1      -0.0      -0.1
  2 N                 0.7      -0.1      -0.0      -0.6       0.3      -0.1
  3 C               -37.5      -3.8      -4.6      -6.0     -34.3      -3.5
  4 C                 1.0       0.1      -0.3      -0.2       0.7       0.1
  5 C                -0.9      -0.0      -0.2      -0.0      -1.0      -0.0
 10 H                -2.4      -0.0      -0.0      -0.0      -0.0      -0.0
 11 H                -0.0      -0.0      -0.0      -0.0      -1.5      -0.0
 12 H                -0.0      -0.0      -0.0      -0.0      -0.1      -0.1
 13 H               140.4     104.8     105.8     107.1      -0.5      -0.6
 14 H                -0.5      -0.6      -0.6      -0.1     137.0     104.5
 15 H                -0.0      -0.0      -0.0      -0.0      -0.2      -0.0
 16 H                -0.4      -0.0      -0.0       0.0      -0.0      -0.0

                    138       139       140       141       142       143   
                   0.00000   0.00000   0.00000   0.00000   0.00000   0.00000
                   0.00008   0.00002   0.00262   0.00016   0.00010   0.00003
                  --------  --------  --------  --------  --------  --------
  2 N                -0.1      -0.5       0.1      -0.2      -0.0      -0.0
  3 C                -4.0      -6.8       0.7      -0.1      -0.1      -0.1
  4 C                -0.3      -0.2     -40.5      -4.0      -3.2      -8.0
  5 C                -0.3      -0.0       2.2       0.1      -0.2      -0.1
  6 N                -0.0      -0.0       0.3       0.0      -0.1      -0.0
 12 H                 0.0      -0.0      -2.1      -0.0      -0.0      -0.1
 13 H                -0.7      -0.1      -0.0      -0.0      -0.0      -0.0
 14 H               105.5     107.6      -0.2      -0.0      -0.0      -0.0
 15 H                -0.0       0.0     139.8     105.0     104.0     108.4
 16 H                -0.0      -0.0      -0.1      -0.7      -0.5      -0.0

                    144       145       146       147   
                   0.00000   0.00000   0.00000   0.00000
                   0.00431   0.00013   0.00010   0.00003
                  --------  --------  --------  --------
  2 N                -0.3      -0.2      -0.0      -0.0
  3 C                 0.6      -0.1      -0.0      -0.1
  4 C               -41.0      -4.1      -3.3      -8.0
  5 C                 1.9       0.0      -0.2      -0.1
  6 N                 0.3       0.0      -0.1      -0.0
 13 H                -0.4      -0.0      -0.0      -0.0
 15 H                -0.2      -0.6      -0.5      -0.0
 16 H               139.2     105.1     104.2     108.3

Storing NBOs: 2516.nbo
                                    *** NBOs were stored ***

                                *** returned from GENNBO program ***

-------
TIMINGS
-------

Total SCF time: 0 days 0 hours 0 min 5 sec 

Total time                  ....       5.608 sec
Sum of individual times     ....       6.110 sec  (109.0%)

Fock matrix formation       ....       3.484 sec  ( 62.1%)
  Coulomb formation         ....       1.873 sec  ( 53.8% of F)
  Split-RI-J                ....       1.865 sec  ( 53.5% of F)
  XC integration            ....       1.606 sec  ( 46.1% of F)
    Basis function eval.    ....       0.557 sec  ( 34.7% of XC)
    Density eval.           ....       0.299 sec  ( 18.6% of XC)
    XC-Functional eval.     ....       0.103 sec  (  6.4% of XC)
    XC-Potential eval.      ....       0.608 sec  ( 37.9% of XC)
Diagonalization             ....       0.028 sec  (  0.5%)
Density matrix formation    ....       0.003 sec  (  0.1%)
Population analysis         ....       1.450 sec  ( 25.9%)
Initial guess               ....       0.379 sec  (  6.8%)
Orbital Transformation      ....       0.000 sec  (  0.0%)
Orbital Orthonormalization  ....       0.000 sec  (  0.0%)
DIIS solution               ....       0.007 sec  (  0.1%)
SOSCF solution              ....       0.011 sec  (  0.2%)
Grid generation             ....       0.748 sec  ( 13.3%)
           ************************************************************
           *              Shut down parallel processing               *
           ************************************************************

-------------------------   --------------------
FINAL SINGLE POINT ENERGY      -305.403770787010
-------------------------   --------------------


                            ***************************************
                            *     ORCA property calculations      *
                            ***************************************

                                    ---------------------
                                    Active property flags
                                    ---------------------
   (+) Dipole Moment


------------------------------------------------------------------------------
                       ORCA ELECTRIC PROPERTIES CALCULATION
------------------------------------------------------------------------------

Dipole Moment Calculation                       ... on
Quadrupole Moment Calculation                   ... off
Polarizability Calculation                      ... off
GBWName                                         ... 2516.gbw
Electron density file                           ... 2516.scfp.tmp

-------------
DIPOLE MOMENT
-------------
                                X             Y             Z
Electronic contribution:     10.36084       0.95672      -5.79642
Nuclear contribution   :    -11.89525      -0.75246       6.20865
                        -----------------------------------------
Total Dipole Moment    :     -1.53442       0.20426       0.41222
                        -----------------------------------------
Magnitude (a.u.)       :      1.60190
Magnitude (Debye)      :      4.07171


Timings for individual modules:

Sum of individual times         ...        6.788 sec (=   0.113 min)
GTO integral calculation        ...        0.470 sec (=   0.008 min)   6.9 %
SCF iterations                  ...        6.318 sec (=   0.105 min)  93.1 %
                             ****ORCA TERMINATED NORMALLY****
TOTAL RUN TIME: 0 days 0 hours 0 minutes 7 seconds 171 msec
