
                                 *****************
                                 * O   R   C   A *
                                 *****************

           --- An Ab Initio, DFT and Semiempirical electronic structure package ---

                  #######################################################
                  #                        -***-                        #
                  #  Department of molecular theory and spectroscopy    #
                  #              Directorship: Frank Neese              #
                  # Max Planck Institute for Chemical Energy Conversion #
                  #                  D-45470 Muelheim/Ruhr              #
                  #                       Germany                       #
                  #                                                     #
                  #                  All rights reserved                #
                  #                        -***-                        #
                  #######################################################


                         Program Version 3.0.3 - RELEASE   -


 With contributions from (in alphabetic order):
   Ute Becker             : Parallelization
   Dmytro Bykov           : SCF Hessian
   Dmitry Ganyushin       : Spin-Orbit,Spin-Spin,Magnetic field MRCI
   Andreas Hansen         : Spin unrestricted coupled pair/coupled cluster methods
   Dimitrios Liakos       : Extrapolation schemes; parallel MDCI
   Robert Izsak           : Overlap fitted RIJCOSX, COSX-SCS-MP3
   Christian Kollmar      : KDIIS, OOCD, Brueckner-CCSD(T), CCSD density
   Simone Kossmann        : Meta GGA functionals, TD-DFT gradient, OOMP2, MP2 Hessian
   Taras Petrenko         : DFT Hessian,TD-DFT gradient, ASA and ECA modules, normal mode analysis, Resonance Raman, ABS, FL, XAS/XES, NRVS
   Christoph Reimann      : Effective Core Potentials
   Michael Roemelt        : Restricted open shell CIS
   Christoph Riplinger    : Improved optimizer, TS searches, QM/MM, DLPNO-CCSD
   Barbara Sandhoefer     : DKH picture change effects
   Igor Schapiro          : Molecular dynamics
   Kantharuban Sivalingam : CASSCF convergence, NEVPT2
   Boris Wezisla          : Elementary symmetry handling
   Frank Wennmohs         : Technical directorship


 We gratefully acknowledge several colleagues who have allowed us to
 interface, adapt or use parts of their codes:
   Stefan Grimme, W. Hujo, H. Kruse, T. Risthaus : VdW corrections, initial TS optimization,
                                                   DFT functionals, gCP
   Ed Valeev                                     : LibInt (2-el integral package), F12 methods
   Garnet Chan, S. Sharma, R. Olivares           : DMRG
   Ulf Ekstrom                                   : XCFun DFT Library
   Mihaly Kallay                                 : mrcc  (arbitrary order and MRCC methods)
   Andreas Klamt, Michael Diedenhofen            : otool_cosmo (COSMO solvation model)
   Frank Weinhold                                : gennbo (NPA and NBO analysis)
   Christopher J. Cramer and Donald G. Truhlar   : smd solvation model


 Your calculation uses the libint2 library for the computation of 2-el integrals
 For citations please refer to: http://libint.valeyev.net

 This ORCA versions uses:
   CBLAS   interface :  Fast vector & matrix operations
   LAPACKE interface :  Fast linear algebra routines
   SCALAPACK package :  Parallel linear algebra routines


Your calculation utilizes the basis: Ahlrichs-VDZ
Cite in your paper:
H - Kr: A. Schaefer, H. Horn and R. Ahlrichs, J. Chem. Phys. 97, 2571 (1992).

Your calculation utilizes the basis: Ahlrichs SVPalls1+f
Cite in your paper:
Rb - Xe: A. Schaefer, C. Huber and R. Ahlrichs, J. Chem. Phys. 100, 5829 (1994).

================================================================================
                                        WARNINGS
                       Please study these warnings very carefully!
================================================================================
Now building the actual basis set


INFO   : the flag for use of LIBINT has been found!

================================================================================
                                       INPUT FILE
================================================================================
NAME = 2597.inp
|  1> ! RI PBE def2-SVP def2-SVP/J NBO PAL2
|  2> % maxcore 2000
|  3> % output
|  4>     # printlevel mini
|  5>     print[ P_Basis ] 0
|  6>     print[ P_SCFInfo ] 1
|  7>     print[ P_SCFIterInfo ] 1
|  8>     print[ P_OrbEn ] 0
|  9>     print[ P_Cartesian ] 0
| 10> end
| 11> *xyz 0 1
| 12>  C        1.1405510000     0.1228920000    -0.2432540000 
| 13>  N        2.5542110000     0.0672890000    -0.0066770000 
| 14>  C        3.3217150000    -1.0728030000     0.1914430000 
| 15>  C        4.6089830000    -0.7822380000     0.3855560000 
| 16>  C        4.7597620000     0.7084060000     0.3169720000 
| 17>  C        3.3425630000     1.1943280000     0.0527330000 
| 18>  N        2.8565020000     2.3606480000    -0.1005240000 
| 19>  H        0.7381250000    -0.8898040000    -0.2462430000 
| 20>  H        0.9275410000     0.5996290000    -1.2036920000 
| 21>  H        0.6411240000     0.7083200000     0.5332400000 
| 22>  H        2.8401810000    -2.0407360000     0.1727000000 
| 23>  H        5.4028420000    -1.4902070000     0.5608800000 
| 24>  H        5.4266140000     1.0375730000    -0.4867230000 
| 25>  H        5.1408830000     1.1461770000     1.2454520000 
| 26>  H        3.5843210000     3.0643370000    -0.0245620000 
| 27> *
| 28> 
| 29>                          ****END OF INPUT****
================================================================================

                       ****************************
                       * Single Point Calculation *
                       ****************************

--------------------------------
INTERNAL COORDINATES (ANGSTROEM)
--------------------------------
 C      0   0   0   0.000000     0.000     0.000
 N      1   0   0   1.434397     0.000     0.000
 C      2   1   0   1.388569   126.877     0.000
 C      3   2   1   1.333854   112.045   180.005
 C      4   3   2   1.499819   107.871     0.000
 C      2   1   3   1.376679   122.667   180.009
 N      6   2   1   1.272810   121.755     0.000
 H      1   2   3   1.089729   109.170     0.000
 H      1   2   3   1.093203   110.722   239.585
 H      1   2   3   1.093205   110.723   120.392
 H      3   2   1   1.081259   119.102     0.000
 H      4   3   2   1.078040   126.248   180.002
 H      5   4   3   1.094974   113.177   240.891
 H      5   4   3   1.094976   113.177   119.108
 H      7   6   2   1.015219   110.632   180.000

---------------------------
INTERNAL COORDINATES (A.U.)
---------------------------
 C      0   0   0   0.000000     0.000     0.000
 N      1   0   0   2.710618     0.000     0.000
 C      2   1   0   2.624015   126.877     0.000
 C      3   2   1   2.520619   112.045   180.005
 C      4   3   2   2.834248   107.871     0.000
 C      2   1   3   2.601546   122.667   180.009
 N      6   2   1   2.405262   121.755     0.000
 H      1   2   3   2.059289   109.170     0.000
 H      1   2   3   2.065854   110.722   239.585
 H      1   2   3   2.065857   110.723   120.392
 H      3   2   1   2.043283   119.102     0.000
 H      4   3   2   2.037201   126.248   180.002
 H      5   4   3   2.069201   113.177   240.891
 H      5   4   3   2.069204   113.177   119.108
 H      7   6   2   1.918485   110.632   180.000



           ************************************************************
           *        Program running with 2 parallel MPI-processes     *
           *              working on a common directory               *
           ************************************************************
------------------------------------------------------------------------------
                           ORCA GTO INTEGRAL CALCULATION
                           -- RI-GTO INTEGRALS CHOSEN --
------------------------------------------------------------------------------

                         BASIS SET STATISTICS AND STARTUP INFO

Gaussian basis set:
 # of primitive gaussian shells          ...  124
 # of primitive gaussian functions       ...  224
 # of contracted shells                  ...   66
 # of contracted basis functions         ...  138
 Highest angular momentum                ...    2
 Maximum contraction depth               ...    5
Auxiliary gaussian basis set:
 # of primitive gaussian shells          ...  232
 # of primitive gaussian functions       ...  618
 # of contracted shells                  ...  145
 # of contracted aux-basis functions     ...  431
 Highest angular momentum                ...    4
 Maximum contraction depth               ...    7
Ratio of auxiliary to basis functions    ...  3.12
Integral package used                  ... LIBINT
 One Electron integrals                  ... done
 Ordering auxiliary basis shells         ... done
 Integral threshhold             Thresh  ...  1.000e-10
 Primitive cut-off               TCut    ...  1.000e-11
 Pre-screening matrix                    ... done
 Shell pair data                         ... 
 Ordering of the shell pairs             ... done (   0.000 sec) 2157 of 2211 pairs
 Determination of significant pairs      ... done (   0.000 sec)
 Creation of shell pair data             ... done (   0.000 sec)
 Storage of shell pair data              ... done (   0.000 sec)
 Shell pair data done in (   0.001 sec)
 Computing two index integrals           ... done
 Cholesky decomposition of the V-matrix  ... done


Timings:
 Total evaluation time                   ...   0.155 sec (  0.003 min)
 One electron matrix time                ...   0.018 sec (  0.000 min) = 11.8%
 Schwartz matrix evaluation time         ...   0.072 sec (  0.001 min) = 46.3%
 Two index repulsion integral time       ...   0.005 sec (  0.000 min) =  3.2%
 Cholesky decomposition of V             ...   0.003 sec (  0.000 min) =  2.1%
 Three index repulsion integral time     ...   0.000 sec (  0.000 min) =  0.0%

           ************************************************************
           *              Shut down parallel processing               *
           ************************************************************


           ************************************************************
           *        Program running with 2 parallel MPI-processes     *
           *              working on a common directory               *
           ************************************************************
-------------------------------------------------------------------------------
                                 ORCA SCF
-------------------------------------------------------------------------------

------------
SCF SETTINGS
------------
Hamiltonian:
 Density Functional     Method          .... DFT(GTOs)
 Exchange Functional    Exchange        .... PBE
   PBE kappa parameter  XKappa          ....  0.804000
 Correlation Functional Correlation     .... PBE
 LDA part of GGA corr.  LDAOpt          .... PW91-LDA
 Gradients option       PostSCFGGA      .... off
   NL short-range parameter             ....  6.400000
 RI-approximation to the Coulomb term is turned on
   Number of auxiliary basis functions  .... 431


General Settings:
 Integral files         IntName         .... 2597
 Hartree-Fock type      HFTyp           .... RHF
 Total Charge           Charge          ....    0
 Multiplicity           Mult            ....    1
 Number of Electrons    NEL             ....   52
 Basis Dimension        Dim             ....  138
 Nuclear Repulsion      ENuc            ....    297.3670089654 Eh

Convergence Acceleration:
 DIIS                   CNVDIIS         .... on
   Start iteration      DIISMaxIt       ....    12
   Startup error        DIISStart       ....  0.200000
   # of expansion vecs  DIISMaxEq       ....     5
   Bias factor          DIISBfac        ....   1.050
   Max. coefficient     DIISMaxC        ....  10.000
 Newton-Raphson         CNVNR           .... off
 SOSCF                  CNVSOSCF        .... on
   Start iteration      SOSCFMaxIt      ....   150
   Startup grad/error   SOSCFStart      ....  0.003300
 Level Shifting         CNVShift        .... on
   Level shift para.    LevelShift      ....    0.2500
   Turn off err/grad.   ShiftErr        ....    0.0010
 Zerner damping         CNVZerner       .... off
 Static damping         CNVDamp         .... on
   Fraction old density DampFac         ....    0.7000
   Max. Damping (<1)    DampMax         ....    0.9800
   Min. Damping (>=0)   DampMin         ....    0.0000
   Turn off err/grad.   DampErr         ....    0.1000
 Fernandez-Rico         CNVRico         .... off

SCF Procedure:
 Maximum # iterations   MaxIter         ....   125
 SCF integral mode      SCFMode         .... Direct
   Integral package                     .... LIBINT
 Reset frequeny         DirectResetFreq ....    20
 Integral Threshold     Thresh          ....  1.000e-10 Eh
 Primitive CutOff       TCut            ....  1.000e-11 Eh

Convergence Tolerance:
 Convergence Check Mode ConvCheckMode   .... Total+1el-Energy
 Energy Change          TolE            ....  1.000e-06 Eh
 1-El. energy change                    ....  1.000e-03 Eh
 Orbital Gradient       TolG            ....  5.000e-05
 Orbital Rotation angle TolX            ....  5.000e-05
 DIIS Error             TolErr          ....  1.000e-06


Diagonalization of the overlap matrix:
Smallest eigenvalue                        ... 7.364e-04
Time for diagonalization                   ...    0.011 sec
Threshold for overlap eigenvalues          ... 1.000e-08
Number of eigenvalues below threshold      ... 0
Time for construction of square roots      ...    0.003 sec
Total time needed                          ...    0.014 sec

-------------------
DFT GRID GENERATION
-------------------

General Integration Accuracy     IntAcc      ...  4.340
Radial Grid Type                 RadialGrid  ... Gauss-Chebyshev
Angular Grid (max. acc.)         AngularGrid ... Lebedev-110
Angular grid pruning method      GridPruning ... 3 (G Style)
Weight generation scheme         WeightScheme... Becke
Basis function cutoff            BFCut       ...    1.0000e-10
Integration weight cutoff        WCut        ...    1.0000e-14
Grids for H and He will be reduced by one unit

# of grid points (after initial pruning)     ...  18036 (   0.0 sec)
# of grid points (after weights+screening)   ...  16766 (   0.1 sec)
nearest neighbour list constructed           ...    0.0 sec
Grid point re-assignment to atoms done       ...    0.0 sec
Grid point division into batches done        ...    0.0 sec
Reduced shell lists constructed in    0.1 sec

Total number of grid points                  ...    16766
Total number of batches                      ...      268
Average number of points per batch           ...       62
Average number of grid points per atom       ...     1118
Average number of shells per batch           ...    54.68 (82.85%)
Average number of basis functions per batch  ...   115.02 (83.35%)
Average number of large shells per batch     ...    45.12 (82.51%)
Average number of large basis fcns per batch ...    93.36 (81.16%)
Maximum spatial batch extension              ...  17.18, 18.64, 25.60 au
Average spatial batch extension              ...   1.23,  1.26,  1.41 au

Time for grid setup =    0.135 sec

------------------------------
INITIAL GUESS: MODEL POTENTIAL
------------------------------
Loading Hartree-Fock densities                     ... done
Calculating cut-offs                               ... done
Setting up the integral package                    ... done
Initializing the effective Hamiltonian             ... done
Starting the Coulomb interaction                   ... done (   0.0 sec)
Reading the grid                                   ... done
Mapping shells                                     ... done
Starting the XC term evaluation                    ... done (   0.1 sec)
  promolecular density results
     # of electrons  =     51.995366878
     EX              =    -41.031300019
     EC              =     -1.720777890
     EX+EC           =    -42.752077909
Transforming the Hamiltonian                       ... done (   0.0 sec)
Diagonalizing the Hamiltonian                      ... done (   0.0 sec)
Back transforming the eigenvectors                 ... done (   0.0 sec)
Now organizing SCF variables                       ... done
                      ------------------
                      INITIAL GUESS DONE (   0.4 sec)
                      ------------------
--------------
SCF ITERATIONS
--------------
ITER       Energy         Delta-E        Max-DP      RMS-DP      [F,P]     Damp
               ***  Starting incremental Fock matrix formation  ***
  0   -304.0219904007   0.000000000000 0.10950768  0.00316676  0.2582870 0.7000
  1   -304.1213361180  -0.099345717319 0.06731002  0.00209725  0.0923523 0.7000
                               ***Turning on DIIS***
  2   -304.1528852310  -0.031549112988 0.06542802  0.00292667  0.0266463 0.0000
  3   -304.2025530585  -0.049667827484 0.05247212  0.00156713  0.0573245 0.0000
  4   -304.2166946719  -0.014141613427 0.01599651  0.00054066  0.0182816 0.0000
                      *** Initiating the SOSCF procedure ***
                           *** Shutting down DIIS ***
                      *** Re-Reading the Fockian *** 
                      *** Removing any level shift *** 
ITER      Energy       Delta-E        Grad      Rot      Max-DP    RMS-DP
  5   -304.21832507  -0.0016303938  0.000746  0.000746  0.003275  0.000151
               *** Restarting incremental Fock matrix formation ***
  6   -304.21838804  -0.0000629766  0.000470  0.001612  0.002556  0.000111
  7   -304.21838159   0.0000064529  0.000874  0.001700  0.002045  0.000055
  8   -304.21839436  -0.0000127732  0.000375  0.001171  0.001434  0.000053
  9   -304.21839306   0.0000013066  0.000422  0.000602  0.000645  0.000023
 10   -304.21839609  -0.0000030381  0.000044  0.000332  0.000363  0.000014
 11   -304.21839609   0.0000000021  0.000057  0.000195  0.000156  0.000006
                 **** Energy Check signals convergence ****
              ***Rediagonalizing the Fockian in SOSCF/NRSCF***

               *****************************************************
               *                     SUCCESS                       *
               *           SCF CONVERGED AFTER  12 CYCLES          *
               *****************************************************

Setting up the final grid:

General Integration Accuracy     IntAcc      ...  4.670
Radial Grid Type                 RadialGrid  ... Gauss-Chebyshev
Angular Grid (max. acc.)         AngularGrid ... Lebedev-302
Angular grid pruning method      GridPruning ... 3 (G Style)
Weight generation scheme         WeightScheme... Becke
Basis function cutoff            BFCut       ...    1.0000e-10
Integration weight cutoff        WCut        ...    1.0000e-14
Grids for H and He will be reduced by one unit

# of grid points (after initial pruning)     ...  70636 (   0.0 sec)
# of grid points (after weights+screening)   ...  64811 (   0.1 sec)
nearest neighbour list constructed           ...    0.0 sec
Grid point re-assignment to atoms done       ...    0.0 sec
Grid point division into batches done        ...    0.2 sec
Reduced shell lists constructed in    0.4 sec

Total number of grid points                  ...    64811
Total number of batches                      ...     1019
Average number of points per batch           ...       63
Average number of grid points per atom       ...     4321
Average number of shells per batch           ...    51.08 (77.40%)
Average number of basis functions per batch  ...   106.56 (77.22%)
Average number of large shells per batch     ...    41.43 (81.11%)
Average number of large basis fcns per batch ...    84.91 (79.68%)
Maximum spatial batch extension              ...  15.65, 16.60, 17.61 au
Average spatial batch extension              ...   0.88,  0.86,  0.92 au

Final grid set up in    0.5 sec
Final integration                            ... done (   0.4 sec)
Change in XC energy                          ...    -0.000496929
Integrated number of electrons               ...    51.999999586
Previous integrated no of electrons          ...    51.998361965

----------------
TOTAL SCF ENERGY
----------------

Total Energy       :         -304.21889311 Eh           -8278.21694 eV

Components:
Nuclear Repulsion  :          297.36700897 Eh            8091.76769 eV
Electronic Energy  :         -601.58590208 Eh          -16369.98463 eV

One Electron Energy:         -999.61712593 Eh          -27200.96487 eV
Two Electron Energy:          398.03122386 Eh           10830.98024 eV

Virial components:
Potential Energy   :         -605.53473158 Eh          -16477.43774 eV
Kinetic Energy     :          301.31583847 Eh            8199.22081 eV
Virial Ratio       :            2.00963459


DFT components:
N(Alpha)           :       25.999999793015 electrons
N(Beta)            :       25.999999793015 electrons
N(Total)           :       51.999999586030 electrons
E(X)               :      -41.818038572639 Eh       
E(C)               :       -1.737506998169 Eh       
E(XC)              :      -43.555545570808 Eh       

---------------
SCF CONVERGENCE
---------------

  Last Energy change         ...   -8.9603e-08  Tolerance :   1.0000e-06
  Last MAX-Density change    ...    1.3164e-04  Tolerance :   1.0000e-05
  Last RMS-Density change    ...    4.8856e-06  Tolerance :   1.0000e-06
  Last Orbital Gradient      ...    2.2874e-05  Tolerance :   5.0000e-05
  Last Orbital Rotation      ...    1.1032e-04  Tolerance :   5.0000e-05

             **** THE GBW FILE WAS UPDATED (2597.gbw) ****
             **** DENSITY FILE WAS UPDATED (2597.scfp.tmp) ****
             **** ENERGY FILE WAS UPDATED (2597.en.tmp) ****

                    ********************************
                    * MULLIKEN POPULATION ANALYSIS *
                    ********************************

-----------------------
MULLIKEN ATOMIC CHARGES
-----------------------
   0 C :    0.124574
   1 N :   -0.227269
   2 C :    0.134961
   3 C :   -0.160605
   4 C :    0.151640
   5 C :   -0.168696
   6 N :   -0.112266
   7 H :    0.019265
   8 H :    0.035815
   9 H :    0.039681
  10 H :   -0.004188
  11 H :   -0.007261
  12 H :    0.048358
  13 H :    0.044719
  14 H :    0.081272
Sum of atomic charges:    0.0000000

--------------------------------
MULLIKEN REDUCED ORBITAL CHARGES
--------------------------------
  0 C s       :     2.963775  s :     2.963775
      pz      :     1.049398  p :     2.873875
      px      :     0.819818
      py      :     1.004659
      dz2     :     0.006727  d :     0.037776
      dxz     :     0.010305
      dyz     :     0.004296
      dx2y2   :     0.010567
      dxy     :     0.005881
  1 N s       :     3.405153  s :     3.405153
      pz      :     1.565042  p :     3.793497
      px      :     1.115920
      py      :     1.112534
      dz2     :     0.002628  d :     0.028619
      dxz     :     0.004919
      dyz     :     0.004278
      dx2y2   :     0.007217
      dxy     :     0.009577
  2 C s       :     3.104915  s :     3.104915
      pz      :     1.025027  p :     2.710295
      px      :     0.912772
      py      :     0.772496
      dz2     :     0.004372  d :     0.049829
      dxz     :     0.010278
      dyz     :     0.006272
      dx2y2   :     0.010921
      dxy     :     0.017986
  3 C s       :     3.225792  s :     3.225792
      pz      :     1.105739  p :     2.904157
      px      :     0.873456
      py      :     0.924963
      dz2     :     0.002599  d :     0.030656
      dxz     :     0.005552
      dyz     :     0.003616
      dx2y2   :     0.009436
      dxy     :     0.009452
  4 C s       :     2.821515  s :     2.821515
      pz      :     1.013067  p :     2.995114
      px      :     1.025778
      py      :     0.956269
      dz2     :     0.004594  d :     0.031730
      dxz     :     0.005897
      dyz     :     0.007678
      dx2y2   :     0.006937
      dxy     :     0.006624
  5 C s       :     3.120042  s :     3.120042
      pz      :     0.967621  p :     2.965850
      px      :     1.057362
      py      :     0.940867
      dz2     :     0.005255  d :     0.082804
      dxz     :     0.006927
      dyz     :     0.019798
      dx2y2   :     0.021098
      dxy     :     0.029725
  6 N s       :     3.495397  s :     3.495397
      pz      :     1.262365  p :     3.594613
      px      :     1.344629
      py      :     0.987620
      dz2     :     0.002671  d :     0.022256
      dxz     :     0.002440
      dyz     :     0.003844
      dx2y2   :     0.003892
      dxy     :     0.009409
  7 H s       :     0.957608  s :     0.957608
      pz      :     0.005795  p :     0.023127
      px      :     0.004656
      py      :     0.012676
  8 H s       :     0.941168  s :     0.941168
      pz      :     0.012305  p :     0.023017
      px      :     0.003248
      py      :     0.007464
  9 H s       :     0.937322  s :     0.937322
      pz      :     0.009830  p :     0.022997
      px      :     0.004827
      py      :     0.008341
 10 H s       :     0.981173  s :     0.981173
      pz      :     0.005377  p :     0.023015
      px      :     0.005308
      py      :     0.012330
 11 H s       :     0.982763  s :     0.982763
      pz      :     0.006772  p :     0.024498
      px      :     0.009651
      py      :     0.008075
 12 H s       :     0.928277  s :     0.928277
      pz      :     0.010052  p :     0.023365
      px      :     0.007950
      py      :     0.005363
 13 H s       :     0.931963  s :     0.931963
      pz      :     0.011573  p :     0.023318
      px      :     0.005845
      py      :     0.005900
 14 H s       :     0.871900  s :     0.871900
      pz      :     0.011325  p :     0.046828
      px      :     0.017386
      py      :     0.018117


                     *******************************
                     * LOEWDIN POPULATION ANALYSIS *
                     *******************************

----------------------
LOEWDIN ATOMIC CHARGES
----------------------
   0 C :    0.024390
   1 N :    0.003131
   2 C :    0.015706
   3 C :   -0.105228
   4 C :   -0.051951
   5 C :    0.011256
   6 N :   -0.176621
   7 H :    0.026815
   8 H :    0.030283
   9 H :    0.030856
  10 H :    0.022899
  11 H :    0.023339
  12 H :    0.049025
  13 H :    0.048275
  14 H :    0.047823

-------------------------------
LOEWDIN REDUCED ORBITAL CHARGES
-------------------------------
  0 C s       :     2.824992  s :     2.824992
      pz      :     1.087541  p :     3.052525
      px      :     0.889243
      py      :     1.075740
      dz2     :     0.017733  d :     0.098093
      dxz     :     0.025331
      dyz     :     0.012433
      dx2y2   :     0.027793
      dxy     :     0.014803
  1 N s       :     3.059011  s :     3.059011
      pz      :     1.518655  p :     3.868207
      px      :     1.166493
      py      :     1.183059
      dz2     :     0.005133  d :     0.069651
      dxz     :     0.008800
      dyz     :     0.008746
      dx2y2   :     0.019797
      dxy     :     0.027174
  2 C s       :     2.854803  s :     2.854803
      pz      :     1.006425  p :     3.003764
      px      :     1.041260
      py      :     0.956079
      dz2     :     0.010013  d :     0.125727
      dxz     :     0.023765
      dyz     :     0.012364
      dx2y2   :     0.030513
      dxy     :     0.049071
  3 C s       :     2.865525  s :     2.865525
      pz      :     1.084022  p :     3.155958
      px      :     1.062847
      py      :     1.009088
      dz2     :     0.006119  d :     0.083745
      dxz     :     0.011388
      dyz     :     0.006928
      dx2y2   :     0.032040
      dxy     :     0.027271
  4 C s       :     2.837921  s :     2.837921
      pz      :     1.064974  p :     3.127581
      px      :     1.032691
      py      :     1.029916
      dz2     :     0.013114  d :     0.086449
      dxz     :     0.016464
      dyz     :     0.017676
      dx2y2   :     0.022748
      dxy     :     0.016448
  5 C s       :     2.843771  s :     2.843771
      pz      :     0.939390  p :     2.948460
      px      :     1.009494
      py      :     0.999576
      dz2     :     0.011872  d :     0.196513
      dxz     :     0.012466
      dyz     :     0.041974
      dx2y2   :     0.051214
      dxy     :     0.078987
  6 N s       :     3.247040  s :     3.247040
      pz      :     1.261036  p :     3.881992
      px      :     1.471594
      py      :     1.149362
      dz2     :     0.006378  d :     0.047589
      dxz     :     0.002375
      dyz     :     0.007269
      dx2y2   :     0.009335
      dxy     :     0.022232
  7 H s       :     0.907315  s :     0.907315
      pz      :     0.013872  p :     0.065870
      px      :     0.014611
      py      :     0.037387
  8 H s       :     0.903178  s :     0.903178
      pz      :     0.036480  p :     0.066539
      px      :     0.010985
      py      :     0.019074
  9 H s       :     0.902547  s :     0.902547
      pz      :     0.028189  p :     0.066596
      px      :     0.016279
      py      :     0.022128
 10 H s       :     0.907437  s :     0.907437
      pz      :     0.015530  p :     0.069664
      px      :     0.016530
      py      :     0.037605
 11 H s       :     0.902449  s :     0.902449
      pz      :     0.020719  p :     0.074212
      px      :     0.027394
      py      :     0.026099
 12 H s       :     0.882088  s :     0.882088
      pz      :     0.028729  p :     0.068886
      px      :     0.024180
      py      :     0.015977
 13 H s       :     0.882917  s :     0.882917
      pz      :     0.033560  p :     0.068807
      px      :     0.017396
      py      :     0.017852
 14 H s       :     0.826392  s :     0.826392
      pz      :     0.029004  p :     0.125785
      px      :     0.055148
      py      :     0.041632


                      *****************************
                      * MAYER POPULATION ANALYSIS *
                      *****************************

  NA   - Mulliken gross atomic population
  ZA   - Total nuclear charge
  QA   - Mulliken gross atomic charge
  VA   - Mayer's total valence
  BVA  - Mayer's bonded valence
  FA   - Mayer's free valence

  ATOM       NA         ZA         QA         VA         BVA        FA
  0 C      5.8754     6.0000     0.1246     3.9361     3.9361    -0.0000
  1 N      7.2273     7.0000    -0.2273     3.3879     3.3879     0.0000
  2 C      5.8650     6.0000     0.1350     3.8343     3.8343     0.0000
  3 C      6.1606     6.0000    -0.1606     3.9487     3.9487    -0.0000
  4 C      5.8484     6.0000     0.1516     3.8092     3.8092     0.0000
  5 C      6.1687     6.0000    -0.1687     4.2809     4.2809    -0.0000
  6 N      7.1123     7.0000    -0.1123     3.0833     3.0833    -0.0000
  7 H      0.9807     1.0000     0.0193     0.9943     0.9943    -0.0000
  8 H      0.9642     1.0000     0.0358     1.0010     1.0010     0.0000
  9 H      0.9603     1.0000     0.0397     1.0006     1.0006     0.0000
 10 H      1.0042     1.0000    -0.0042     0.9930     0.9930    -0.0000
 11 H      1.0073     1.0000    -0.0073     0.9951     0.9951    -0.0000
 12 H      0.9516     1.0000     0.0484     0.9935     0.9935     0.0000
 13 H      0.9553     1.0000     0.0447     0.9930     0.9930     0.0000
 14 H      0.9187     1.0000     0.0813     1.0050     1.0050    -0.0000

  Mayer bond orders larger than 0.1
B(  0-C ,  1-N ) :   0.9977 B(  0-C ,  7-H ) :   0.9646 B(  0-C ,  8-H ) :   0.9616 
B(  0-C ,  9-H ) :   0.9622 B(  1-N ,  2-C ) :   1.0729 B(  1-N ,  5-C ) :   1.1468 
B(  2-C ,  3-C ) :   1.7291 B(  2-C , 10-H ) :   0.9833 B(  3-C ,  4-C ) :   1.0451 
B(  3-C , 11-H ) :   0.9871 B(  4-C ,  5-C ) :   0.9822 B(  4-C , 12-H ) :   0.8973 
B(  4-C , 13-H ) :   0.8966 B(  5-C ,  6-N ) :   1.9443 B(  6-N , 14-H ) :   0.9282 



 *********************************** NBO 6.0 ***********************************
             N A T U R A L   A T O M I C   O R B I T A L   A N D
          N A T U R A L   B O N D   O R B I T A L   A N A L Y S I S
 ***************************** Kiya KiyaLu (100703) ****************************
  (c) Copyright 1996-2015 Board of Regents of the University of Wisconsin System
      on behalf of the Theoretical Chemistry Institute.  All rights reserved.

          Cite this program as:

          NBO 6.0.  E. D. Glendening, J. K. Badenhoop, A. E. Reed,
          J. E. Carpenter, J. A. Bohmann, C. M. Morales, C. R. Landis,
          and F. Weinhold (Theoretical Chemistry Institute, University
          of Wisconsin, Madison, WI, 2013); http://nbo6.chem.wisc.edu/

       /NPA    / : Natural Population Analysis
       /NBO    / : Natural Bond Orbital Analysis
       /AONBO  / : Write the AO to NBO transformation to lfn77
       /FILE   / : Set to 2597

 Filename set to 2597

 Job title:  *** NBO job generated by orca_scf

 Warning: MOs are non-orthogonal; program will continue

 Warning: -2190.83417 electrons reside outside the linearly independent MO space


 NATURAL POPULATIONS:  Natural atomic orbital occupancies

  NAO Atom No lang   Type(AO)    Occupancy      Energy
 -------------------------------------------------------
   1    C  1  s      Cor( 1s)     1.99927      -9.81420
   2    C  1  s      Val( 2s)     1.06400      -0.21143
   3    C  1  s      Ryd( 3s)     0.00101       0.79706
   4    C  1  px     Val( 2p)     0.87806      -0.05941
   5    C  1  px     Ryd( 3p)     0.00187       0.45530
   6    C  1  py     Val( 2p)     1.23517      -0.07871
   7    C  1  py     Ryd( 3p)     0.00391       0.62494
   8    C  1  pz     Val( 2p)     1.23118      -0.07828
   9    C  1  pz     Ryd( 3p)     0.00175       0.52008
  10    C  1  dxy    Ryd( 3d)     0.00039       2.22785
  11    C  1  dxz    Ryd( 3d)     0.00094       2.09019
  12    C  1  dyz    Ryd( 3d)     0.00042       2.23247
  13    C  1  dx2y2  Ryd( 3d)     0.00105       2.23580
  14    C  1  dz2    Ryd( 3d)     0.00072       2.24736

  15    N  2  s      Cor( 1s)     1.99897     -13.86481
  16    N  2  s      Val( 2s)     1.16872      -0.43784
  17    N  2  s      Ryd( 3s)     0.00129       1.09021
  18    N  2  px     Val( 2p)     1.33382      -0.24121
  19    N  2  px     Ryd( 3p)     0.00146       1.37077
  20    N  2  py     Val( 2p)     1.33309      -0.23171
  21    N  2  py     Ryd( 3p)     0.00103       1.18062
  22    N  2  pz     Val( 2p)     1.60993      -0.21075
  23    N  2  pz     Ryd( 3p)     0.00202       0.90007
  24    N  2  dxy    Ryd( 3d)     0.00104       2.73406
  25    N  2  dxz    Ryd( 3d)     0.00063       2.24448
  26    N  2  dyz    Ryd( 3d)     0.00049       2.21672
  27    N  2  dx2y2  Ryd( 3d)     0.00071       2.60481
  28    N  2  dz2    Ryd( 3d)     0.00065       2.45764

  29    C  3  s      Cor( 1s)     1.99890      -9.79935
  30    C  3  s      Val( 2s)     0.91055      -0.13017
  31    C  3  s      Ryd( 3s)     0.00219       0.46000
  32    C  3  px     Val( 2p)     1.04290      -0.04673
  33    C  3  px     Ryd( 3p)     0.00460       0.62008
  34    C  3  py     Val( 2p)     1.01896      -0.03415
  35    C  3  py     Ryd( 3p)     0.00416       0.78997
  36    C  3  pz     Val( 2p)     1.02280      -0.11691
  37    C  3  pz     Ryd( 3p)     0.00157       0.49218
  38    C  3  dxy    Ryd( 3d)     0.00140       2.39204
  39    C  3  dxz    Ryd( 3d)     0.00110       1.91014
  40    C  3  dyz    Ryd( 3d)     0.00075       1.86280
  41    C  3  dx2y2  Ryd( 3d)     0.00078       2.37127
  42    C  3  dz2    Ryd( 3d)     0.00076       2.11851

  43    C  4  s      Cor( 1s)     1.99891      -9.75807
  44    C  4  s      Val( 2s)     0.94658      -0.13521
  45    C  4  s      Ryd( 3s)     0.00094       0.54022
  46    C  4  px     Val( 2p)     1.14550      -0.03983
  47    C  4  px     Ryd( 3p)     0.00405       0.69794
  48    C  4  py     Val( 2p)     1.07303      -0.03815
  49    C  4  py     Ryd( 3p)     0.00456       0.76350
  50    C  4  pz     Val( 2p)     1.12070      -0.09789
  51    C  4  pz     Ryd( 3p)     0.00361       0.52969
  52    C  4  dxy    Ryd( 3d)     0.00070       2.33885
  53    C  4  dxz    Ryd( 3d)     0.00074       1.94133
  54    C  4  dyz    Ryd( 3d)     0.00028       1.89380
  55    C  4  dx2y2  Ryd( 3d)     0.00067       2.35305
  56    C  4  dz2    Ryd( 3d)     0.00055       2.12370

  57    C  5  s      Cor( 1s)     1.99904      -9.78327
  58    C  5  s      Val( 2s)     1.03592      -0.20174
  59    C  5  s      Ryd( 3s)     0.00138       0.92277
  60    C  5  px     Val( 2p)     1.14322      -0.07884
  61    C  5  px     Ryd( 3p)     0.00289       0.51527
  62    C  5  py     Val( 2p)     1.10134      -0.07982
  63    C  5  py     Ryd( 3p)     0.00208       0.55001
  64    C  5  pz     Val( 2p)     1.23575      -0.07711
  65    C  5  pz     Ryd( 3p)     0.00105       0.67359
  66    C  5  dxy    Ryd( 3d)     0.00056       2.10443
  67    C  5  dxz    Ryd( 3d)     0.00052       2.22624
  68    C  5  dyz    Ryd( 3d)     0.00081       2.11169
  69    C  5  dx2y2  Ryd( 3d)     0.00058       2.20834
  70    C  5  dz2    Ryd( 3d)     0.00051       2.20598

  71    C  6  s      Cor( 1s)     1.99913      -9.82523
  72    C  6  s      Val( 2s)     0.76954      -0.08875
  73    C  6  s      Ryd( 3s)     0.00484       0.46694
  74    C  6  px     Val( 2p)     0.95489      -0.03358
  75    C  6  px     Ryd( 3p)     0.01050       0.74134
  76    C  6  py     Val( 2p)     0.85752       0.00159
  77    C  6  py     Ryd( 3p)     0.00724       0.63714
  78    C  6  pz     Val( 2p)     0.93321      -0.10758
  79    C  6  pz     Ryd( 3p)     0.00258       0.54363
  80    C  6  dxy    Ryd( 3d)     0.00244       2.39435
  81    C  6  dxz    Ryd( 3d)     0.00071       1.87776
  82    C  6  dyz    Ryd( 3d)     0.00218       1.95506
  83    C  6  dx2y2  Ryd( 3d)     0.00151       2.36604
  84    C  6  dz2    Ryd( 3d)     0.00067       2.08443

  85    N  7  s      Cor( 1s)     1.99927     -13.77135
  86    N  7  s      Val( 2s)     1.45553      -0.45316
  87    N  7  s      Ryd( 3s)     0.00217       1.22055
  88    N  7  px     Val( 2p)     1.62305      -0.13806
  89    N  7  px     Ryd( 3p)     0.00310       0.99012
  90    N  7  py     Val( 2p)     1.30218      -0.13046
  91    N  7  py     Ryd( 3p)     0.00275       0.92122
  92    N  7  pz     Val( 2p)     1.31838      -0.14182
  93    N  7  pz     Ryd( 3p)     0.00104       0.80984
  94    N  7  dxy    Ryd( 3d)     0.00210       2.76821
  95    N  7  dxz    Ryd( 3d)     0.00139       2.22661
  96    N  7  dyz    Ryd( 3d)     0.00075       2.31633
  97    N  7  dx2y2  Ryd( 3d)     0.00169       2.57848
  98    N  7  dz2    Ryd( 3d)     0.00126       2.51485

  99    H  8  s      Val( 1s)     0.78126       0.04850
 100    H  8  s      Ryd( 2s)     0.00105       0.33562
 101    H  8  px     Ryd( 2p)     0.00024       1.74141
 102    H  8  py     Ryd( 2p)     0.00072       2.20467
 103    H  8  pz     Ryd( 2p)     0.00017       1.67444

 104    H  9  s      Val( 1s)     0.77152       0.06516
 105    H  9  s      Ryd( 2s)     0.00285       0.32860
 106    H  9  px     Ryd( 2p)     0.00010       1.68331
 107    H  9  py     Ryd( 2p)     0.00033       1.85080
 108    H  9  pz     Ryd( 2p)     0.00068       2.16747

 109    H 10  s      Val( 1s)     0.77129       0.06588
 110    H 10  s      Ryd( 2s)     0.00272       0.33201
 111    H 10  px     Ryd( 2p)     0.00020       1.80481
 112    H 10  py     Ryd( 2p)     0.00040       1.90733
 113    H 10  pz     Ryd( 2p)     0.00048       2.01040

 114    H 11  s      Val( 1s)     0.77552       0.05800
 115    H 11  s      Ryd( 2s)     0.00114       0.30125
 116    H 11  px     Ryd( 2p)     0.00020       1.94279
 117    H 11  py     Ryd( 2p)     0.00081       2.24731
 118    H 11  pz     Ryd( 2p)     0.00022       1.59258

 119    H 12  s      Val( 1s)     0.76601       0.08259
 120    H 12  s      Ryd( 2s)     0.00101       0.30104
 121    H 12  px     Ryd( 2p)     0.00053       2.12719
 122    H 12  py     Ryd( 2p)     0.00042       2.09022
 123    H 12  pz     Ryd( 2p)     0.00032       1.64615

 124    H 13  s      Val( 1s)     0.74089       0.06633
 125    H 13  s      Ryd( 2s)     0.00180       0.32418
 126    H 13  px     Ryd( 2p)     0.00037       1.94059
 127    H 13  py     Ryd( 2p)     0.00018       1.78139
 128    H 13  pz     Ryd( 2p)     0.00055       2.05965

 129    H 14  s      Val( 1s)     0.74138       0.06551
 130    H 14  s      Ryd( 2s)     0.00185       0.32242
 131    H 14  px     Ryd( 2p)     0.00020       1.81502
 132    H 14  py     Ryd( 2p)     0.00022       1.81280
 133    H 14  pz     Ryd( 2p)     0.00069       2.14237

 134    H 15  s      Val( 1s)     0.65438       0.08555
 135    H 15  s      Ryd( 2s)     0.00148       0.39719
 136    H 15  px     Ryd( 2p)     0.00094       2.13285
 137    H 15  py     Ryd( 2p)     0.00107       2.11179
 138    H 15  pz     Ryd( 2p)     0.00073       1.64812

   1 low occupancy (<1.9990e) core orbital  found on  N  2
   1 low occupancy (<1.9990e) core orbital  found on  C  3
   1 low occupancy (<1.9990e) core orbital  found on  C  4


 Summary of Natural Population Analysis:

                                     Natural Population
             Natural    ---------------------------------------------
  Atom No    Charge        Core      Valence    Rydberg      Total
 --------------------------------------------------------------------
    C  1   -0.41974      1.99927     4.40841    0.01205     6.41974
    N  2   -0.45385      1.99897     5.44555    0.00933     7.45385
    C  3   -0.01141      1.99890     3.99521    0.01730     6.01141
    C  4   -0.30081      1.99891     4.28580    0.01609     6.30081
    C  5   -0.52565      1.99904     4.51623    0.01038     6.52565
    C  6    0.45305      1.99913     3.51516    0.03265     5.54695
    N  7   -0.71466      1.99927     5.69913    0.01625     7.71466
    H  8    0.21656      0.00000     0.78126    0.00218     0.78344
    H  9    0.22453      0.00000     0.77152    0.00396     0.77547
    H 10    0.22492      0.00000     0.77129    0.00380     0.77508
    H 11    0.22210      0.00000     0.77552    0.00237     0.77790
    H 12    0.23171      0.00000     0.76601    0.00228     0.76829
    H 13    0.25621      0.00000     0.74089    0.00290     0.74379
    H 14    0.25566      0.00000     0.74138    0.00296     0.74434
    H 15    0.34139      0.00000     0.65438    0.00423     0.65861
 ====================================================================
 * Total *  0.00000     13.99351    37.86777    0.13872    52.00000

                                 Natural Population
 ---------------------------------------------------------
   Core                      13.99351 ( 99.9536% of   14)
   Valence                   37.86777 ( 99.6520% of   38)
   Natural Minimal Basis     51.86128 ( 99.7332% of   52)
   Natural Rydberg Basis      0.13872 (  0.2668% of   52)
 ---------------------------------------------------------

    Atom No         Natural Electron Configuration
 ----------------------------------------------------------------------------
      C  1      [core]2s( 1.06)2p( 3.34)3p( 0.01)
      N  2      [core]2s( 1.17)2p( 4.28)
      C  3      [core]2s( 0.91)2p( 3.08)3p( 0.01)
      C  4      [core]2s( 0.95)2p( 3.34)3p( 0.01)
      C  5      [core]2s( 1.04)2p( 3.48)3p( 0.01)
      C  6      [core]2s( 0.77)2p( 2.75)3p( 0.02)3d( 0.01)
      N  7      [core]2s( 1.46)2p( 4.24)3p( 0.01)3d( 0.01)
      H  8            1s( 0.78)
      H  9            1s( 0.77)
      H 10            1s( 0.77)
      H 11            1s( 0.78)
      H 12            1s( 0.77)
      H 13            1s( 0.74)
      H 14            1s( 0.74)
      H 15            1s( 0.65)


 NATURAL BOND ORBITAL ANALYSIS:

                            Occupancies       Lewis Structure    Low   High
         Max    Occ     -------------------  -----------------   occ   occ
  Cycle  Ctr   Thresh    Lewis   non-Lewis     CR  BD  nC  LP    (L)   (NL)
 ============================================================================
    1     2     1.90    51.13409   0.86591      7  17   0   2     1      2
    2     2     1.85    51.13409   0.86591      7  17   0   2     1      2
    3     2     1.81    51.13409   0.86591      7  17   0   2     1      2
    4     2     1.75    51.13409   0.86591      7  17   0   2     1      2
    5     2     1.69    51.13409   0.86591      7  17   0   2     1      2
    6     2     1.61    51.13409   0.86591      7  17   0   2     0      2
    7     2     1.90    51.13409   0.86591      7  17   0   2     1      2
 ----------------------------------------------------------------------------

 Strongly delocalized structure accepted

 -------------------------------------------------------
   Core                     13.99351 ( 99.954% of  14)
   Valence Lewis            37.14059 ( 97.738% of  38)
  ==================      =============================
   Total Lewis              51.13409 ( 98.335% of  52)
  -----------------------------------------------------
   Valence non-Lewis         0.77371 (  1.488% of  52)
   Rydberg non-Lewis         0.09220 (  0.177% of  52)
  ==================      =============================
   Total non-Lewis           0.86591 (  1.665% of  52)
 -------------------------------------------------------


     (Occupancy)   Bond orbital / Coefficients / Hybrids
 ------------------ Lewis ------------------------------------------------------
   1. (1.99927) CR ( 1) C  1            s(100.00%)
                                         1.0000  0.0000  0.0000  0.0000  0.0000
                                         0.0000  0.0000  0.0000  0.0000  0.0000
                                         0.0000  0.0000  0.0000  0.0000
   2. (1.99897) CR ( 1) N  2            s(100.00%)
                                         1.0000  0.0000  0.0000  0.0000  0.0000
                                         0.0000  0.0000  0.0000  0.0000  0.0000
                                         0.0000  0.0000  0.0000  0.0000
   3. (1.99890) CR ( 1) C  3            s(100.00%)
                                         1.0000  0.0000  0.0000  0.0000  0.0000
                                         0.0000  0.0000  0.0000  0.0000  0.0000
                                         0.0000  0.0000  0.0000  0.0000
   4. (1.99891) CR ( 1) C  4            s(100.00%)
                                         1.0000  0.0000  0.0000  0.0000  0.0000
                                         0.0000  0.0000  0.0000  0.0000  0.0000
                                         0.0000  0.0000  0.0000  0.0000
   5. (1.99904) CR ( 1) C  5            s(100.00%)
                                         1.0000  0.0000  0.0000  0.0000  0.0000
                                         0.0000  0.0000  0.0000  0.0000  0.0000
                                         0.0000  0.0000  0.0000  0.0000
   6. (1.99913) CR ( 1) C  6            s(100.00%)
                                         1.0000  0.0000  0.0000  0.0000  0.0000
                                         0.0000  0.0000  0.0000  0.0000  0.0000
                                         0.0000  0.0000  0.0000  0.0000
   7. (1.99927) CR ( 1) N  7            s(100.00%)
                                         1.0000  0.0000  0.0000  0.0000  0.0000
                                         0.0000  0.0000  0.0000  0.0000  0.0000
                                         0.0000  0.0000  0.0000  0.0000
   8. (1.61935) LP ( 1) N  2            s(  0.00%)p 1.00( 99.99%)d 0.00(  0.01%)
                                         0.0000  0.0005  0.0007  0.1630 -0.0031
                                        -0.0616  0.0009 -0.9847 -0.0019 -0.0004
                                        -0.0078 -0.0007  0.0015 -0.0022
   9. (1.91386) LP ( 1) N  7            s( 36.00%)p 1.78( 63.90%)d 0.00(  0.09%)
                                         0.0000  0.5996 -0.0214 -0.7381 -0.0260
                                         0.2724  0.0031 -0.1389 -0.0046  0.0185
                                        -0.0078  0.0030 -0.0199  0.0109
  10. (1.98714) BD ( 1) C  1- N  2
               ( 36.38%)   0.6031* C  1 s( 24.76%)p 3.03( 75.11%)d 0.01(  0.13%)
                                         0.0000  0.4974  0.0133  0.8538  0.0288
                                        -0.0290 -0.0103  0.1425  0.0041 -0.0043
                                         0.0106 -0.0007  0.0300 -0.0176
               ( 63.62%)   0.7976* N  2 s( 32.84%)p 2.04( 67.13%)d 0.00(  0.03%)
                                         0.0000  0.5730  0.0063 -0.8082 -0.0016
                                         0.0112  0.0038 -0.1342  0.0004 -0.0009
                                         0.0051 -0.0006  0.0115 -0.0106
  11. (1.98915) BD ( 1) C  1- H  8
               ( 60.84%)   0.7800* C  1 s( 24.79%)p 3.03( 75.16%)d 0.00(  0.04%)
                                         0.0000  0.4979  0.0007 -0.3164 -0.0098
                                        -0.8070  0.0121 -0.0016 -0.0026  0.0084
                                        -0.0003 -0.0006 -0.0155 -0.0099
               ( 39.16%)   0.6258* H  8 s( 99.90%)p 0.00(  0.10%)
                                         0.9995 -0.0006  0.0154  0.0282  0.0007
  12. (1.98759) BD ( 1) C  1- H  9
               ( 61.65%)   0.7852* C  1 s( 25.24%)p 2.96( 74.73%)d 0.00(  0.04%)
                                         0.0000  0.5023 -0.0029 -0.1516 -0.0095
                                         0.3708 -0.0057 -0.7660  0.0066 -0.0009
                                         0.0033 -0.0121 -0.0034  0.0136
               ( 38.35%)   0.6193* H  9 s( 99.90%)p 0.00(  0.10%)
                                         0.9995 -0.0052  0.0069 -0.0154  0.0276
  13. (1.98762) BD ( 1) C  1- H 10
               ( 61.66%)   0.7852* C  1 s( 25.23%)p 2.96( 74.74%)d 0.00(  0.04%)
                                         0.0000  0.5022 -0.0040 -0.3809 -0.0083
                                         0.4579 -0.0062  0.6264 -0.0086 -0.0061
                                        -0.0101  0.0131 -0.0025  0.0068
               ( 38.34%)   0.6192* H 10 s( 99.90%)p 0.00(  0.10%)
                                         0.9995 -0.0050  0.0143 -0.0182 -0.0215
  14. (1.97989) BD ( 1) N  2- C  3
               ( 63.49%)   0.7968* N  2 s( 33.26%)p 2.01( 66.70%)d 0.00(  0.04%)
                                         0.0000  0.5767  0.0020  0.3812  0.0160
                                        -0.7139  0.0118  0.1080  0.0014 -0.0130
                                         0.0038 -0.0038 -0.0046 -0.0127
               ( 36.51%)   0.6043* C  3 s( 27.84%)p 2.59( 72.02%)d 0.01(  0.15%)
                                         0.0000  0.5275  0.0121 -0.5103 -0.0468
                                         0.6646  0.0031 -0.1258 -0.0076 -0.0271
                                         0.0064 -0.0078 -0.0113 -0.0221
  15. (1.97738) BD ( 1) N  2- C  6
               ( 63.93%)   0.7996* N  2 s( 33.83%)p 1.95( 66.12%)d 0.00(  0.04%)
                                         0.0000  0.5817 -0.0026  0.4178  0.0093
                                         0.6970 -0.0066  0.0258  0.0016  0.0144
                                         0.0026  0.0006 -0.0039 -0.0140
               ( 36.07%)   0.6006* C  6 s( 27.97%)p 2.57( 71.89%)d 0.00(  0.14%)
                                         0.0000  0.5289  0.0030 -0.5345 -0.0356
                                        -0.6556 -0.0006 -0.0471 -0.0056  0.0288
                                         0.0027  0.0019 -0.0089 -0.0208
  16. (1.97871) BD ( 1) C  3- C  4
               ( 50.67%)   0.7119* C  3 s( 40.41%)p 1.47( 59.53%)d 0.00(  0.05%)
                                         0.0000  0.6356  0.0114  0.7547  0.0052
                                         0.0984 -0.0375  0.1212  0.0027  0.0108
                                         0.0058  0.0011  0.0141 -0.0140
               ( 49.33%)   0.7023* C  4 s( 36.69%)p 1.72( 63.25%)d 0.00(  0.06%)
                                         0.0000  0.6055  0.0145 -0.7463 -0.0101
                                        -0.2492 -0.0483 -0.1051  0.0016  0.0054
                                         0.0070  0.0002  0.0175 -0.0154
  17. (1.96421) BD ( 2) C  3- C  4
               ( 47.37%)   0.6883* C  3 s(  0.00%)p 1.00( 99.93%)d 0.00(  0.07%)
                                         0.0000 -0.0018 -0.0006 -0.1644  0.0005
                                         0.0612 -0.0002  0.9839 -0.0209 -0.0001
                                         0.0237  0.0104 -0.0047  0.0061
               ( 52.63%)   0.7254* C  4 s(  0.00%)p 1.00( 99.93%)d 0.00(  0.07%)
                                         0.0000 -0.0015  0.0024 -0.1606  0.0015
                                         0.0623 -0.0014  0.9844 -0.0240 -0.0014
                                        -0.0246 -0.0014  0.0043 -0.0070
  18. (1.98332) BD ( 1) C  3- H 11
               ( 61.44%)   0.7838* C  3 s( 31.65%)p 2.16( 68.32%)d 0.00(  0.03%)
                                         0.0000  0.5624 -0.0145 -0.3752  0.0099
                                        -0.7363  0.0010 -0.0158  0.0016  0.0134
                                         0.0007  0.0008 -0.0066 -0.0091
               ( 38.56%)   0.6210* H 11 s( 99.89%)p 0.00(  0.11%)
                                         0.9995 -0.0016  0.0121  0.0305  0.0001
  19. (1.96942) BD ( 1) C  4- C  5
               ( 48.46%)   0.6961* C  4 s( 31.06%)p 2.22( 68.89%)d 0.00(  0.05%)
                                         0.0000  0.5573  0.0005  0.1850  0.0455
                                         0.8076 -0.0043 -0.0200  0.0072 -0.0016
                                         0.0017 -0.0028 -0.0159 -0.0147
               ( 51.54%)   0.7179* C  5 s( 28.43%)p 2.52( 71.53%)d 0.00(  0.03%)
                                         0.0000  0.5332  0.0052 -0.0054  0.0201
                                        -0.8439 -0.0013  0.0520  0.0034  0.0052
                                         0.0004 -0.0012 -0.0142 -0.0105
  20. (1.98104) BD ( 1) C  4- H 12
               ( 61.76%)   0.7859* C  4 s( 32.07%)p 2.12( 67.91%)d 0.00(  0.02%)
                                         0.0000  0.5661 -0.0120  0.6171  0.0039
                                        -0.5291 -0.0029  0.1351  0.0016 -0.0122
                                         0.0033 -0.0029  0.0003 -0.0087
               ( 38.24%)   0.6184* H 12 s( 99.90%)p 0.00(  0.10%)
                                         0.9995 -0.0013 -0.0228  0.0211 -0.0050
  21. (1.97307) BD ( 1) C  5- C  6
               ( 51.06%)   0.7146* C  5 s( 26.55%)p 2.77( 73.41%)d 0.00(  0.04%)
                                         0.0000  0.5152 -0.0044 -0.7799  0.0106
                                         0.3214  0.0165 -0.1488  0.0016 -0.0086
                                         0.0060 -0.0017  0.0148 -0.0101
               ( 48.94%)   0.6996* C  6 s( 35.16%)p 1.84( 64.80%)d 0.00(  0.04%)
                                         0.0000  0.5926 -0.0206  0.7750 -0.0162
                                        -0.1633  0.0364  0.1386 -0.0039 -0.0128
                                         0.0055 -0.0025  0.0107 -0.0097
  22. (1.95573) BD ( 1) C  5- H 13
               ( 62.63%)   0.7914* C  5 s( 22.48%)p 3.45( 77.49%)d 0.00(  0.03%)
                                         0.0000  0.4741  0.0011  0.5418  0.0071
                                         0.2565  0.0012 -0.6445  0.0073  0.0055
                                        -0.0124 -0.0073  0.0031  0.0079
               ( 37.37%)   0.6113* H 13 s( 99.90%)p 0.00(  0.10%)
                                         0.9995 -0.0023 -0.0195 -0.0084  0.0238
  23. (1.95586) BD ( 1) C  5- H 14
               ( 62.61%)   0.7912* C  5 s( 22.48%)p 3.45( 77.49%)d 0.00(  0.03%)
                                         0.0000  0.4741  0.0018  0.3121  0.0089
                                         0.3437  0.0011  0.7479 -0.0046  0.0036
                                         0.0063  0.0109 -0.0012  0.0113
               ( 37.39%)   0.6115* H 14 s( 99.90%)p 0.00(  0.10%)
                                         0.9995 -0.0023 -0.0114 -0.0117 -0.0279
  24. (1.99078) BD ( 1) C  6- N  7
               ( 41.62%)   0.6451* C  6 s( 36.53%)p 1.73( 63.38%)d 0.00(  0.08%)
                                         0.0000  0.6038  0.0268 -0.2927 -0.0151
                                         0.7332  0.0421 -0.0921 -0.0058 -0.0187
                                         0.0035 -0.0056 -0.0135 -0.0156
               ( 58.38%)   0.7641* N  7 s( 43.63%)p 1.29( 56.24%)d 0.00(  0.13%)
                                         0.0000  0.6601  0.0240  0.2610 -0.0030
                                        -0.6972  0.0136  0.0893 -0.0008 -0.0238
                                         0.0050 -0.0072 -0.0159 -0.0206
  25. (1.98056) BD ( 2) C  6- N  7
               ( 39.00%)   0.6245* C  6 s(  0.00%)p 1.00( 99.86%)d 0.00(  0.14%)
                                         0.0000  0.0018  0.0001  0.1620 -0.0026
                                        -0.0601  0.0002 -0.9838  0.0303  0.0064
                                         0.0142 -0.0324 -0.0005  0.0078
               ( 61.00%)   0.7810* N  7 s(  0.00%)p 1.00( 99.84%)d 0.00(  0.16%)
                                         0.0000  0.0016  0.0016  0.1631 -0.0006
                                        -0.0633  0.0014 -0.9837  0.0051 -0.0060
                                        -0.0300  0.0232  0.0035 -0.0116
  26. (1.96593) BD ( 1) N  7- H 15
               ( 66.97%)   0.8184* N  7 s( 20.41%)p 3.89( 79.46%)d 0.01(  0.13%)
                                         0.0000  0.4516  0.0124  0.5977  0.0061
                                         0.6576 -0.0394  0.0575  0.0033  0.0224
                                         0.0069  0.0030  0.0206 -0.0167
               ( 33.03%)   0.5747* H 15 s( 99.83%)p 0.00(  0.17%)
                                         0.9992 -0.0015 -0.0246 -0.0328 -0.0020
 ---------------- non-Lewis ----------------------------------------------------
  27. (0.02152) BD*( 1) C  1- N  2
               ( 63.62%)   0.7976* C  1 s( 24.76%)p 3.03( 75.11%)d 0.01(  0.13%)
                                         0.0000  0.4974  0.0133  0.8538  0.0288
                                        -0.0290 -0.0103  0.1425  0.0041 -0.0043
                                         0.0106 -0.0007  0.0300 -0.0176
               ( 36.38%)  -0.6031* N  2 s( 32.84%)p 2.04( 67.13%)d 0.00(  0.03%)
                                         0.0000  0.5730  0.0063 -0.8082 -0.0016
                                         0.0112  0.0038 -0.1342  0.0004 -0.0009
                                         0.0051 -0.0006  0.0115 -0.0106
  28. (0.00517) BD*( 1) C  1- H  8
               ( 39.16%)   0.6258* C  1 s( 24.79%)p 3.03( 75.16%)d 0.00(  0.04%)
                                         0.0000 -0.4979 -0.0007  0.3164  0.0098
                                         0.8070 -0.0121  0.0016  0.0026 -0.0084
                                         0.0003  0.0006  0.0155  0.0099
               ( 60.84%)  -0.7800* H  8 s( 99.90%)p 0.00(  0.10%)
                                        -0.9995  0.0006 -0.0154 -0.0282 -0.0007
  29. (0.01628) BD*( 1) C  1- H  9
               ( 38.35%)   0.6193* C  1 s( 25.24%)p 2.96( 74.73%)d 0.00(  0.04%)
                                         0.0000 -0.5023  0.0029  0.1516  0.0095
                                        -0.3708  0.0057  0.7660 -0.0066  0.0009
                                        -0.0033  0.0121  0.0034 -0.0136
               ( 61.65%)  -0.7852* H  9 s( 99.90%)p 0.00(  0.10%)
                                        -0.9995  0.0052 -0.0069  0.0154 -0.0276
  30. (0.01605) BD*( 1) C  1- H 10
               ( 38.34%)   0.6192* C  1 s( 25.23%)p 2.96( 74.74%)d 0.00(  0.04%)
                                         0.0000 -0.5022  0.0040  0.3809  0.0083
                                        -0.4579  0.0062 -0.6264  0.0086  0.0061
                                         0.0101 -0.0131  0.0025 -0.0068
               ( 61.66%)  -0.7852* H 10 s( 99.90%)p 0.00(  0.10%)
                                        -0.9995  0.0050 -0.0143  0.0182  0.0215
  31. (0.02648) BD*( 1) N  2- C  3
               ( 36.51%)   0.6043* N  2 s( 33.26%)p 2.01( 66.70%)d 0.00(  0.04%)
                                         0.0000 -0.5767 -0.0020 -0.3812 -0.0160
                                         0.7139 -0.0118 -0.1080 -0.0014  0.0130
                                        -0.0038  0.0038  0.0046  0.0127
               ( 63.49%)  -0.7968* C  3 s( 27.84%)p 2.59( 72.02%)d 0.01(  0.15%)
                                         0.0000 -0.5275 -0.0121  0.5103  0.0468
                                        -0.6646 -0.0031  0.1258  0.0076  0.0271
                                        -0.0064  0.0078  0.0113  0.0221
  32. (0.07031) BD*( 1) N  2- C  6
               ( 36.07%)   0.6006* N  2 s( 33.83%)p 1.95( 66.12%)d 0.00(  0.04%)
                                         0.0000 -0.5817  0.0026 -0.4178 -0.0093
                                        -0.6970  0.0066 -0.0258 -0.0016 -0.0144
                                        -0.0026 -0.0006  0.0039  0.0140
               ( 63.93%)  -0.7996* C  6 s( 27.97%)p 2.57( 71.89%)d 0.00(  0.14%)
                                         0.0000 -0.5289 -0.0030  0.5345  0.0356
                                         0.6556  0.0006  0.0471  0.0056 -0.0288
                                        -0.0027 -0.0019  0.0089  0.0208
  33. (0.01265) BD*( 1) C  3- C  4
               ( 49.33%)   0.7023* C  3 s( 40.41%)p 1.47( 59.53%)d 0.00(  0.05%)
                                         0.0000  0.6356  0.0114  0.7547  0.0052
                                         0.0984 -0.0375  0.1212  0.0027  0.0108
                                         0.0058  0.0011  0.0141 -0.0140
               ( 50.67%)  -0.7119* C  4 s( 36.69%)p 1.72( 63.25%)d 0.00(  0.06%)
                                         0.0000  0.6055  0.0145 -0.7463 -0.0101
                                        -0.2492 -0.0483 -0.1051  0.0016  0.0054
                                         0.0070  0.0002  0.0175 -0.0154
  34. (0.18275) BD*( 2) C  3- C  4
               ( 52.63%)   0.7254* C  3 s(  0.00%)p 1.00( 99.93%)d 0.00(  0.07%)
                                         0.0000  0.0018  0.0006  0.1644 -0.0005
                                        -0.0612  0.0002 -0.9839  0.0209  0.0001
                                        -0.0237 -0.0104  0.0047 -0.0061
               ( 47.37%)  -0.6883* C  4 s(  0.00%)p 1.00( 99.93%)d 0.00(  0.07%)
                                         0.0000  0.0015 -0.0024  0.1606 -0.0015
                                        -0.0623  0.0014 -0.9844  0.0240  0.0014
                                         0.0246  0.0014 -0.0043  0.0070
  35. (0.01897) BD*( 1) C  3- H 11
               ( 38.56%)   0.6210* C  3 s( 31.65%)p 2.16( 68.32%)d 0.00(  0.03%)
                                         0.0000 -0.5624  0.0145  0.3752 -0.0099
                                         0.7363 -0.0010  0.0158 -0.0016 -0.0134
                                        -0.0007 -0.0008  0.0066  0.0091
               ( 61.44%)  -0.7838* H 11 s( 99.89%)p 0.00(  0.11%)
                                        -0.9995  0.0016 -0.0121 -0.0305 -0.0001
  36. (0.01318) BD*( 1) C  4- C  5
               ( 51.54%)   0.7179* C  4 s( 31.06%)p 2.22( 68.89%)d 0.00(  0.05%)
                                         0.0000  0.5573  0.0005  0.1850  0.0455
                                         0.8076 -0.0043 -0.0200  0.0072 -0.0016
                                         0.0017 -0.0028 -0.0159 -0.0147
               ( 48.46%)  -0.6961* C  5 s( 28.43%)p 2.52( 71.53%)d 0.00(  0.03%)
                                         0.0000  0.5332  0.0052 -0.0054  0.0201
                                        -0.8439 -0.0013  0.0520  0.0034  0.0052
                                         0.0004 -0.0012 -0.0142 -0.0105
  37. (0.01510) BD*( 1) C  4- H 12
               ( 38.24%)   0.6184* C  4 s( 32.07%)p 2.12( 67.91%)d 0.00(  0.02%)
                                         0.0000 -0.5661  0.0120 -0.6171 -0.0039
                                         0.5291  0.0029 -0.1351 -0.0016  0.0122
                                        -0.0033  0.0029 -0.0003  0.0087
               ( 61.76%)  -0.7859* H 12 s( 99.90%)p 0.00(  0.10%)
                                        -0.9995  0.0013  0.0228 -0.0211  0.0050
  38. (0.05689) BD*( 1) C  5- C  6
               ( 48.94%)   0.6996* C  5 s( 26.55%)p 2.77( 73.41%)d 0.00(  0.04%)
                                         0.0000 -0.5152  0.0044  0.7799 -0.0106
                                        -0.3214 -0.0165  0.1488 -0.0016  0.0086
                                        -0.0060  0.0017 -0.0148  0.0101
               ( 51.06%)  -0.7146* C  6 s( 35.16%)p 1.84( 64.80%)d 0.00(  0.04%)
                                         0.0000 -0.5926  0.0206 -0.7750  0.0162
                                         0.1633 -0.0364 -0.1386  0.0039  0.0128
                                        -0.0055  0.0025 -0.0107  0.0097
  39. (0.01718) BD*( 1) C  5- H 13
               ( 37.37%)   0.6113* C  5 s( 22.48%)p 3.45( 77.49%)d 0.00(  0.03%)
                                         0.0000 -0.4741 -0.0011 -0.5418 -0.0071
                                        -0.2565 -0.0012  0.6445 -0.0073 -0.0055
                                         0.0124  0.0073 -0.0031 -0.0079
               ( 62.63%)  -0.7914* H 13 s( 99.90%)p 0.00(  0.10%)
                                        -0.9995  0.0023  0.0195  0.0084 -0.0238
  40. (0.01726) BD*( 1) C  5- H 14
               ( 37.39%)   0.6115* C  5 s( 22.48%)p 3.45( 77.49%)d 0.00(  0.03%)
                                         0.0000 -0.4741 -0.0018 -0.3121 -0.0089
                                        -0.3437 -0.0011 -0.7479  0.0046 -0.0036
                                        -0.0063 -0.0109  0.0012 -0.0113
               ( 62.61%)  -0.7912* H 14 s( 99.90%)p 0.00(  0.10%)
                                        -0.9995  0.0023  0.0114  0.0117  0.0279
  41. (0.01360) BD*( 1) C  6- N  7
               ( 58.38%)   0.7641* C  6 s( 36.53%)p 1.73( 63.38%)d 0.00(  0.08%)
                                         0.0000  0.6038  0.0268 -0.2927 -0.0151
                                         0.7332  0.0421 -0.0921 -0.0058 -0.0187
                                         0.0035 -0.0056 -0.0135 -0.0156
               ( 41.62%)  -0.6451* N  7 s( 43.63%)p 1.29( 56.24%)d 0.00(  0.13%)
                                         0.0000  0.6601  0.0240  0.2610 -0.0030
                                        -0.6972  0.0136  0.0893 -0.0008 -0.0238
                                         0.0050 -0.0072 -0.0159 -0.0206
  42. (0.26105) BD*( 2) C  6- N  7
               ( 61.00%)   0.7810* C  6 s(  0.00%)p 1.00( 99.86%)d 0.00(  0.14%)
                                         0.0000  0.0018  0.0001  0.1620 -0.0026
                                        -0.0601  0.0002 -0.9838  0.0303  0.0064
                                         0.0142 -0.0324 -0.0005  0.0078
               ( 39.00%)  -0.6245* N  7 s(  0.00%)p 1.00( 99.84%)d 0.00(  0.16%)
                                         0.0000  0.0016  0.0016  0.1631 -0.0006
                                        -0.0633  0.0014 -0.9837  0.0051 -0.0060
                                        -0.0300  0.0232  0.0035 -0.0116
  43. (0.00927) BD*( 1) N  7- H 15
               ( 33.03%)   0.5747* N  7 s( 20.41%)p 3.89( 79.46%)d 0.01(  0.13%)
                                         0.0000 -0.4516 -0.0124 -0.5977 -0.0061
                                        -0.6576  0.0394 -0.0575 -0.0033 -0.0224
                                        -0.0069 -0.0030 -0.0206  0.0167
               ( 66.97%)  -0.8184* H 15 s( 99.83%)p 0.00(  0.17%)
                                        -0.9992  0.0015  0.0246  0.0328  0.0020
  44. (0.00408) RY ( 1) C  1            s(  3.58%)p25.79( 92.39%)d 1.12(  4.03%)
                                         0.0000  0.0039  0.1892 -0.0033  0.2851
                                         0.0157  0.9169 -0.0020 -0.0415  0.1918
                                        -0.0200  0.0353  0.0403 -0.0149
  45. (0.00251) RY ( 2) C  1            s(  0.60%)p99.99( 67.23%)d53.91( 32.17%)
                                         0.0000 -0.0013  0.0772 -0.0021  0.2007
                                        -0.0018 -0.1191 -0.0167 -0.7858 -0.0751
                                        -0.5254  0.0844  0.0793 -0.1633
  46. (0.00147) RY ( 3) C  1            s( 41.87%)p 1.30( 54.45%)d 0.09(  3.68%)
                                         0.0000 -0.0043  0.6471 -0.0347  0.6429
                                        -0.0030 -0.2846 -0.0023  0.2212 -0.1657
                                         0.0849 -0.0415 -0.0123  0.0160
  47. (0.00025) RY ( 4) C  1            s( 42.85%)p 0.78( 33.54%)d 0.55( 23.61%)
                                         0.0000  0.0000  0.6546  0.0249 -0.5715
                                         0.0097  0.0180  0.0036 -0.0880  0.1791
                                        -0.0626 -0.0063 -0.4398 -0.0812
  48. (0.00010) RY ( 5) C  1            s(  0.01%)p 1.00( 32.71%)d 2.06( 67.28%)
                                         0.0000  0.0002  0.0086  0.0009 -0.0919
                                        -0.0007  0.0411 -0.0046  0.5630 -0.0934
                                        -0.7597  0.1171  0.1331 -0.2354
  49. (0.00006) RY ( 6) C  1            s(  0.64%)p16.05( 10.20%)d99.99( 89.16%)
  50. (0.00001) RY ( 7) C  1            s(  0.00%)p 1.00(  0.03%)d99.99( 99.96%)
  51. (0.00001) RY ( 8) C  1            s(  6.78%)p 1.10(  7.47%)d12.65( 85.75%)
  52. (0.00001) RY ( 9) C  1            s(  3.67%)p 0.61(  2.23%)d25.67( 94.11%)
  53. (0.00213) RY ( 1) N  2            s(  1.52%)p63.47( 96.19%)d 1.51(  2.29%)
                                         0.0000  0.0011  0.1231  0.0046 -0.3068
                                        -0.0001  0.0701 -0.0008  0.9289 -0.0014
                                         0.1294 -0.0491  0.0565  0.0237
  54. (0.00168) RY ( 2) N  2            s( 48.01%)p 0.80( 38.43%)d 0.28( 13.56%)
                                         0.0000  0.0033  0.6929  0.0137 -0.5379
                                         0.0001 -0.1139  0.0052 -0.2860 -0.1090
                                         0.0580  0.0151  0.3316 -0.1008
  55. (0.00087) RY ( 3) N  2            s(  4.71%)p16.75( 78.88%)d 3.48( 16.41%)
                                         0.0000  0.0006  0.2170 -0.0064  0.2134
                                        -0.0057 -0.8536 -0.0026  0.1209 -0.1621
                                        -0.0013 -0.1287 -0.3478 -0.0157
  56. (0.00085) RY ( 4) N  2            s( 37.87%)p 0.92( 35.01%)d 0.72( 27.11%)
                                         0.0000 -0.0126  0.6153 -0.0051  0.5246
                                        -0.0016  0.2544 -0.0015  0.1011  0.4695
                                        -0.0784  0.1035 -0.1345 -0.1253
  57. (0.00061) RY ( 5) N  2            s(  0.02%)p79.98(  1.82%)d99.99( 98.16%)
                                         0.0000 -0.0007  0.0151  0.0013  0.0214
                                        -0.0023  0.0340 -0.0049 -0.1287  0.2781
                                         0.6674 -0.6286 -0.0163  0.2516
  58. (0.00046) RY ( 6) N  2            s(  6.25%)p 3.33( 20.79%)d11.67( 72.95%)
                                         0.0000 -0.0039  0.2500 -0.0021  0.2218
                                         0.0230  0.3977 -0.0027  0.0016 -0.7836
                                         0.0749 -0.1842 -0.2552  0.1040
  59. (0.00035) RY ( 7) N  2            s(  0.00%)p 1.00(  0.44%)d99.99( 99.56%)
                                         0.0000  0.0010  0.0051  0.0002 -0.0371
                                        -0.0015 -0.0215 -0.0058 -0.0500 -0.0343
                                         0.6358  0.7200 -0.2420  0.1145
  60. (0.00026) RY ( 8) N  2            s(  0.20%)p99.99( 27.68%)d99.99( 72.12%)
                                         0.0000  0.0112  0.0434 -0.0047 -0.4908
                                        -0.0036  0.1570  0.0019 -0.1058  0.2168
                                        -0.2430 -0.0811 -0.7714  0.1164
  61. (0.00003) RY ( 9) N  2            s(  1.48%)p 0.53(  0.79%)d65.89( 97.72%)
  62. (0.00444) RY ( 1) C  3            s(  0.24%)p99.99( 85.14%)d61.39( 14.63%)
                                         0.0000  0.0234  0.0429  0.0038  0.6434
                                         0.0326  0.6562  0.0002  0.0758  0.2668
                                        -0.0594  0.0309 -0.2611 -0.0489
  63. (0.00278) RY ( 2) C  3            s( 34.11%)p 1.78( 60.63%)d 0.15(  5.26%)
                                         0.0000 -0.0037  0.5840  0.0208 -0.6009
                                        -0.0285  0.4890  0.0052 -0.0695  0.2009
                                        -0.0242  0.0612  0.0518 -0.0720
  64. (0.00195) RY ( 3) C  3            s(  0.09%)p99.99( 37.91%)d99.99( 62.00%)
                                         0.0000  0.0000  0.0298  0.0056  0.0562
                                        -0.0028  0.0119 -0.0228 -0.6126  0.1472
                                         0.5811 -0.4558 -0.0808  0.2153
  65. (0.00114) RY ( 4) C  3            s( 64.25%)p 0.51( 32.47%)d 0.05(  3.27%)
                                         0.0000 -0.0082  0.8015 -0.0265  0.4152
                                        -0.0056 -0.3846 -0.0025  0.0604 -0.1522
                                         0.0353 -0.0334  0.0492 -0.0690
  66. (0.00067) RY ( 5) C  3            s(  0.01%)p99.99( 60.56%)d99.99( 39.42%)
                                         0.0000  0.0000  0.0111 -0.0012 -0.1060
                                         0.0005  0.0308  0.0040  0.7704  0.0647
                                         0.5442 -0.2306 -0.0778  0.1860
  67. (0.00020) RY ( 6) C  3            s(  0.01%)p 1.00(  8.66%)d10.54( 91.33%)
                                         0.0000 -0.0009  0.0087  0.0330 -0.0703
                                        -0.0288  0.2803  0.0067 -0.0339 -0.8495
                                         0.0528 -0.1860 -0.3482 -0.1816
  68. (0.00004) RY ( 7) C  3            s(  0.43%)p27.47( 11.71%)d99.99( 87.86%)
  69. (0.00002) RY ( 8) C  3            s(  0.00%)p 1.00(  1.64%)d59.93( 98.36%)
  70. (0.00001) RY ( 9) C  3            s(  0.96%)p 1.53(  1.47%)d99.99( 97.57%)
  71. (0.00311) RY ( 1) C  4            s(  0.79%)p99.99( 86.48%)d16.03( 12.73%)
                                         0.0000  0.0305  0.0837 -0.0144 -0.6024
                                         0.0166  0.6569  0.0047  0.2643 -0.3497
                                         0.0340  0.0403  0.0284 -0.0373
  72. (0.00285) RY ( 2) C  4            s(  0.05%)p99.99( 92.44%)d99.99(  7.51%)
                                         0.0000  0.0145  0.0178 -0.0054 -0.0393
                                         0.0024  0.2824 -0.0230 -0.9179 -0.1149
                                         0.0217 -0.2452  0.0326  0.0151
  73. (0.00191) RY ( 3) C  4            s(  7.46%)p12.16( 90.65%)d 0.25(  1.89%)
                                         0.0000 -0.0081  0.2729  0.0378 -0.6789
                                         0.0305 -0.6504  0.0000 -0.1425 -0.1034
                                        -0.0023 -0.0508 -0.0670 -0.0338
  74. (0.00040) RY ( 4) C  4            s( 83.68%)p 0.09(  7.59%)d 0.10(  8.73%)
                                         0.0000 -0.0048  0.9147  0.0064  0.2279
                                        -0.0179  0.1498 -0.0001  0.0336  0.1274
                                        -0.0235 -0.0236 -0.2066 -0.1653
  75. (0.00028) RY ( 5) C  4            s(  0.08%)p21.71(  1.63%)d99.99( 98.30%)
                                         0.0000 -0.0003  0.0274 -0.0029  0.0207
                                         0.0006 -0.0101  0.0191 -0.1241 -0.0363
                                         0.8031  0.5226 -0.1897  0.1661
  76. (0.00010) RY ( 6) C  4            s(  0.60%)p14.10(  8.41%)d99.99( 90.99%)
                                         0.0000  0.0109  0.0765  0.0209 -0.2533
                                         0.0159  0.1249  0.0015 -0.0605  0.7232
                                         0.0741  0.1608  0.5945 -0.0456
  77. (0.00002) RY ( 7) C  4            s(  5.59%)p 1.38(  7.73%)d15.49( 86.67%)
  78. (0.00000) RY ( 8) C  4            s(  1.92%)p 0.32(  0.61%)d50.74( 97.46%)
  79. (0.00000) RY ( 9) C  4            s(  0.02%)p99.99(  4.47%)d99.99( 95.51%)
  80. (0.00327) RY ( 1) C  5            s( 23.20%)p 3.08( 71.41%)d 0.23(  5.39%)
                                         0.0000  0.0201  0.4813 -0.0091 -0.7748
                                        -0.0006 -0.3161 -0.0018 -0.1172  0.2220
                                        -0.0105  0.0418 -0.0195 -0.0489
  81. (0.00163) RY ( 2) C  5            s( 10.35%)p 8.39( 86.86%)d 0.27(  2.79%)
                                         0.0000 -0.0035  0.3217  0.0101 -0.1824
                                        -0.0049  0.9063  0.0007 -0.1172 -0.1240
                                         0.0024  0.0022 -0.1026 -0.0450
  82. (0.00136) RY ( 3) C  5            s(  0.11%)p99.99( 66.09%)d99.99( 33.81%)
                                         0.0000 -0.0006  0.0327 -0.0021 -0.1396
                                         0.0008  0.0796  0.0172  0.7967  0.0577
                                        -0.2726 -0.5049  0.0689 -0.0283
  83. (0.00073) RY ( 4) C  5            s( 51.30%)p 0.46( 23.54%)d 0.49( 25.16%)
                                         0.0000 -0.0080  0.7162 -0.0012  0.4090
                                         0.0110 -0.2484 -0.0014  0.0791 -0.4586
                                         0.0049 -0.0559 -0.1780 -0.0801
  84. (0.00048) RY ( 5) C  5            s(  0.16%)p55.43(  8.76%)d99.99( 91.09%)
                                         0.0000 -0.0002  0.0397 -0.0002  0.0576
                                         0.0008 -0.0142 -0.0002 -0.2899  0.1523
                                         0.5153 -0.7543 -0.0580  0.2232
  85. (0.00011) RY ( 6) C  5            s( 13.40%)p 1.32( 17.69%)d 5.14( 68.91%)
                                         0.0000 -0.0136  0.3659 -0.0066  0.4100
                                         0.0036  0.0908 -0.0006  0.0221  0.7756
                                        -0.0783  0.1251  0.2564  0.0046
  86. (0.00007) RY ( 7) C  5            s(  0.05%)p99.99( 24.88%)d99.99( 75.07%)
  87. (0.00006) RY ( 8) C  5            s(  0.81%)p 0.95(  0.77%)d99.99( 98.42%)
  88. (0.00001) RY ( 9) C  5            s(  0.67%)p 0.14(  0.09%)d99.99( 99.23%)
  89. (0.01338) RY ( 1) C  6            s( 11.55%)p 7.28( 84.12%)d 0.37(  4.32%)
                                         0.0000 -0.0514  0.3360  0.0175 -0.8243
                                         0.0013  0.3687  0.0001 -0.1600  0.1904
                                        -0.0209  0.0280 -0.0756 -0.0084
  90. (0.00434) RY ( 2) C  6            s( 41.27%)p 1.05( 43.25%)d 0.37( 15.47%)
                                         0.0000  0.0239  0.6420  0.0350  0.0121
                                         0.0035 -0.6547  0.0076  0.0503  0.0816
                                        -0.0444 -0.0354 -0.3713 -0.0837
  91. (0.00414) RY ( 3) C  6            s(  0.01%)p99.99( 47.37%)d99.99( 52.62%)
                                         0.0000  0.0005  0.0111  0.0087  0.1169
                                        -0.0036 -0.0488 -0.0450 -0.6749 -0.1197
[...]
  0 C               116.0     110.8     110.1     112.2      -4.8      -1.2
  1 N                -3.4      -0.1      -1.1      -0.5     115.3     167.4
  2 C                 1.3      -0.0       0.0      -0.1      -4.6     -25.8
  3 C                -0.0      -0.0       0.0       0.0       0.2       4.0
  4 C                 0.0      -0.0      -0.0       0.0       0.0       0.1
  5 C                -0.7      -0.0      -0.0       0.1      -5.7     -39.5
  6 N                 0.1       0.0       0.0      -0.0      -0.4      -3.7
  7 H                -6.9      -2.0      -3.4      -5.6      -0.1      -0.1
  8 H                -3.4      -4.3      -2.9      -3.0       0.1      -0.0
  9 H                -2.8      -4.4      -2.8      -3.0       0.1       0.0
 10 H                -0.1      -0.0      -0.0      -0.0      -0.1      -0.9
 14 H                -0.0       0.0      -0.0      -0.0      -0.0      -0.5

                     54        55        56        57        58        59   
                   0.00000   0.00000   0.00000   0.00000   0.00000   0.00000
                   0.00087   0.00085   0.00061   0.00046   0.00035   0.00026
                  --------  --------  --------  --------  --------  --------
  0 C                -8.9     -29.8      -1.1      -7.1      -0.6      -4.4
  1 N               148.8     148.1     102.8     115.0     102.4     118.7
  2 C               -12.3     -15.2      -1.2      -6.0      -0.2      -6.2
  3 C                -1.6      -1.2      -0.0      -0.5       0.0       0.3
  4 C                -2.8       0.1      -0.0      -0.5      -0.0       1.4
  5 C               -23.4      -3.3      -0.3      -1.8      -1.4      -8.6
  6 N                 0.1      -0.3      -0.0       0.4      -0.0      -1.0
  7 H                -0.2       1.0      -0.0       0.2      -0.0      -0.0
  8 H                 0.2       0.3       0.0       0.0       0.0       0.0
  9 H                 0.2       0.2      -0.0       0.0      -0.0       0.1
 10 H                 0.0       0.1      -0.0       0.2      -0.0      -0.2

                     60        61        62        63        64        65   
                   0.00000   0.00000   0.00000   0.00000   0.00000   0.00000
                   0.00003   0.00444   0.00278   0.00195   0.00114   0.00067
                  --------  --------  --------  --------  --------  --------
  0 C                -1.0      -2.5      -5.4      -0.4       0.0       0.0
  1 N               103.4      -6.3     -51.1      -0.2      -2.6      -4.4
  2 C                -0.7     182.8     191.0     105.3     253.8     108.3
  3 C                -0.1     -43.6     -26.5      -3.9    -136.0      -3.7
  4 C                -0.1       7.3       4.2       0.2       3.8      -0.2
  5 C                -1.4      -7.0     -10.7      -0.4      -2.8       0.2
  6 N                -0.1      -0.3      -0.3      -0.1      -0.0       0.0
  7 H                -0.0       0.0      -1.3      -0.0      -0.5      -0.0
 10 H                -0.0     -29.5      -0.7      -0.4     -14.7      -0.2
 11 H                -0.0      -0.7       0.8      -0.1      -1.0       0.0

                     66        67        68        69        70        71   
                   0.00000   0.00000   0.00000   0.00000   0.00000   0.00000
                   0.00020   0.00004   0.00002   0.00001   0.00311   0.00285
                  --------  --------  --------  --------  --------  --------
  0 C                 0.2       0.5       0.0      -0.1      -0.0      -0.0
  1 N                -0.4      -5.4      -0.5      -1.6       1.6       0.2
  2 C               110.9     120.2     105.1     110.5     -28.3      -9.1
  3 C                -5.2      -5.5      -1.9      -2.9     174.2     124.3
  4 C                 1.0       0.2      -0.0       0.4     -26.3     -10.0
  5 C                -1.8       0.7      -0.0      -0.9       5.1       1.1
  6 N                -0.2      -0.0      -0.0      -0.2      -0.0       0.0
  7 H                 0.1      -0.1      -0.0      -0.0      -0.0      -0.0
 10 H                -5.0     -10.5      -2.6      -5.3      -0.1       0.1
 11 H                 0.3      -0.1       0.0      -0.0     -25.8      -6.3
 12 H                -0.0      -0.0      -0.0      -0.0      -0.1      -0.1
 13 H                -0.0      -0.0      -0.0      -0.0      -0.1      -0.2

                     72        73        74        75        76        77   
                   0.00000   0.00000   0.00000   0.00000   0.00000   0.00000
                   0.00191   0.00040   0.00028   0.00010   0.00002   0.00000
                  --------  --------  --------  --------  --------  --------
  0 C                -0.2       0.0      -0.0      -0.0       0.0      -0.0
  1 N                -1.4       1.2      -0.0       0.1       0.1      -0.0
  2 C               -97.2     -71.4      -2.6      -7.6      -5.0      -4.4
  3 C               219.9     267.1     104.5     117.0     122.7     111.5
  4 C               -16.3     -93.7      -1.5      -3.5      -7.2      -3.3
  5 C                -2.8       9.6       0.0       0.5      -0.6       0.4
  6 N                -0.2       0.3      -0.0      -0.1      -0.2      -0.1
  7 H                -0.1      -0.0      -0.0       0.0      -0.0      -0.0
 10 H                -0.4      -1.2      -0.0      -0.2       0.0      -0.1
 11 H                -1.5     -11.9      -0.4      -6.0      -9.7      -3.8
 12 H                 0.1      -0.0       0.0      -0.0      -0.0      -0.0
 13 H                 0.1       0.0       0.0      -0.0      -0.0      -0.0

                     78        79        80        81        82        83   
                   0.00000   0.00000   0.00000   0.00000   0.00000   0.00000
                   0.00000   0.00327   0.00163   0.00136   0.00073   0.00048
                  --------  --------  --------  --------  --------  --------
  0 C                -0.0      -0.6      -0.6      -0.0      -0.1      -0.0
  1 N                -0.0       2.0      -4.2      -0.0      -0.0      -0.0
  2 C                -1.0      13.6      -2.9       0.0       3.3       0.1
  3 C               105.1     -64.4      -9.6      -4.7     -68.5      -2.3
  4 C                -2.1     253.8     187.0     131.6     216.1     108.9
  5 C                -0.0     -95.0     -55.3      -6.9     -17.8      -0.6
  6 N                -0.0      -5.5      -0.3      -0.5      -1.4       0.0
 10 H                 0.0       0.2      -0.0       0.0       0.1      -0.0
 11 H                -2.0      -0.7       0.5      -0.1      -1.2      -0.0
 12 H                 0.0      -1.7      -7.5      -8.5     -15.3      -3.4
 13 H                 0.0      -1.6      -6.2     -10.7     -15.2      -2.5
 14 H                -0.0      -0.1      -0.9      -0.0       0.0       0.0

                     84        85        86        87        88        89   
                   0.00000   0.00000   0.00000   0.00000   0.00000   0.00000
                   0.00011   0.00007   0.00006   0.00001   0.01338   0.00434
                  --------  --------  --------  --------  --------  --------
  0 C                -0.0       0.0       0.0      -0.0      -6.8       0.8
  1 N                 0.3       0.0      -0.3      -0.0     -19.9     -38.4
  2 C                -0.3       0.0       0.3      -0.0      -1.0     -22.4
  3 C                -8.0      -1.4      -3.3      -1.5      -0.4      16.8
  4 C               128.5     121.6     106.1     110.0     -17.7     -66.6
  5 C                -3.5      -2.2      -1.6      -2.3     225.6     223.6
  6 N                -0.6      -0.1       0.2      -0.0     -76.7     -11.7
  7 H                -0.0       0.0       0.0      -0.0      -0.2       0.1
  8 H                 0.0      -0.0      -0.0       0.0      -0.6      -0.2
  9 H                 0.0      -0.0      -0.0       0.0      -0.6      -0.2
 10 H                -0.0      -0.0       0.0      -0.0      -0.0      -0.6
 11 H                 0.1       0.1       0.0      -0.0      -0.1      -0.1
 12 H                -9.3      -8.0      -0.6      -3.0       0.3      -0.2
 13 H                -7.0      -9.9      -0.9      -3.2       0.3      -0.2
 14 H                 0.0      -0.0       0.0      -0.0      -2.2      -0.7

                     90        91        92        93        94        95   
                   0.00000   0.00000   0.00000   0.00000   0.00000   0.00000
                   0.00414   0.00212   0.00142   0.00089   0.00037   0.00017
                  --------  --------  --------  --------  --------  --------
  0 C                -0.2      -0.1      -3.5       0.2      -0.2       0.1
  1 N                -0.8      -4.8     -15.9      -5.1      -3.7      -0.9
  2 C                -0.2      -0.2       3.2       0.1       0.6      -0.2
  3 C                 0.1       0.3      -4.6      -0.1       0.5       0.1
  4 C                -2.7     -24.7     -54.2      -0.4     -10.7      -7.2
  5 C               109.6     136.1     203.5     107.4     118.5     109.2
  6 N                -5.6      -7.7     -25.3      -1.5      -4.3      -1.8
  8 H                 0.0      -0.1       0.1      -0.2      -0.0      -0.1
  9 H                 0.0      -0.1       0.1      -0.2      -0.0      -0.1
 12 H                -0.2      -0.0       0.5      -0.2      -0.2       0.4
 13 H                -0.1      -0.1       0.5      -0.2      -0.2       0.4
 14 H                -0.1       1.4      -4.2       0.0      -0.2      -0.0

                     96        97        98        99       100       101   
                   0.00000   0.00000   0.00000   0.00000   0.00000   0.00000
                   0.00001   0.00239   0.00111   0.00034   0.00008   0.00002
                  --------  --------  --------  --------  --------  --------
  0 C                 0.0      -1.9      -0.0      -0.1      -0.2      -0.1
  1 N                -0.6       0.5      -0.2      -4.8      -0.9      -0.2
  2 C                -0.3      -0.0      -0.0      -0.6      -0.3      -0.0
  3 C                 0.3       0.1      -0.0       0.0      -0.3      -0.0
  4 C                -2.7      -2.5      -0.4      -6.1      -0.7       0.1
  5 C               104.1     -29.9      -5.8     -62.6     -14.2      -4.8
  6 N                -0.7     137.7     107.5     176.6     125.8     107.5
 11 H                -0.0      -0.0      -0.0      -0.2      -0.1      -0.0
 12 H                -0.0      -0.0      -0.0      -0.0      -0.1      -0.0
 13 H                -0.0      -0.0      -0.0      -0.0      -0.1      -0.0
 14 H                -0.0      -4.0      -0.8      -2.1      -8.9      -2.4

                    102       103       104       105       106       107   
                   0.00000   0.00000   0.00000   0.00000   0.00000   0.00000
                   0.00002   0.00001   0.00000   0.00000   0.00109   0.00017
                  --------  --------  --------  --------  --------  --------
  0 C                 0.0       0.0       0.0      -0.0     -37.9      -2.9
  1 N                -0.3      -0.0      -0.1      -0.1       0.8      -0.2
  2 C                 0.0      -0.0      -0.0      -0.0      -1.7      -0.0
  4 C                -0.3      -0.0      -0.1      -0.2      -0.1      -0.0
  5 C                -4.1      -0.2       0.6      -3.1       0.0      -0.0
  6 N               108.4     102.5     104.1     103.5      -0.0      -0.0
  7 H                -0.0       0.0       0.0      -0.0     142.4     103.7
  8 H                -0.0      -0.0       0.0       0.0      -0.5      -0.3
  9 H                -0.0      -0.0       0.0       0.0      -0.4      -0.3
 10 H                -0.0      -0.0      -0.0      -0.0      -2.5      -0.0
 14 H                -3.6      -2.3      -4.5      -0.1      -0.0      -0.0

                    108       109       110       111       112       113   
                   0.00000   0.00000   0.00000   0.00000   0.00000   0.00000
                   0.00008   0.00002   0.00289   0.00016   0.00010   0.00002
                  --------  --------  --------  --------  --------  --------
  0 C                -4.2      -7.1     -37.1      -2.9      -4.3      -6.6
  1 N                -0.2      -0.2       0.6      -0.1       0.0      -0.2
  5 C                -0.0      -0.0      -1.1      -0.0       0.0      -0.0
  7 H               105.2     107.7      -0.4      -0.3      -0.3      -0.2
  8 H                -0.3      -0.1     138.2     104.0     105.1     107.1
  9 H                -0.3      -0.1      -0.3      -0.5      -0.4      -0.1

                    114       115       116       117       118       119   
                   0.00000   0.00000   0.00000   0.00000   0.00000   0.00000
                   0.00276   0.00016   0.00011   0.00002   0.00117   0.00022
                  --------  --------  --------  --------  --------  --------
  0 C               -37.2      -2.8      -4.4      -6.5      -0.2      -0.0
  1 N                 0.6      -0.1       0.0      -0.2      -1.0      -0.1
  2 C                 0.0      -0.0      -0.0      -0.0     -45.4      -3.1
  3 C                -0.0      -0.0      -0.0      -0.0      -3.0      -0.1
  4 C                -0.0      -0.0      -0.0      -0.0       0.4      -0.0
  5 C                -1.0      -0.0       0.0      -0.0      -0.4      -0.0
  7 H                -0.4      -0.3      -0.3      -0.2      -2.4      -0.0
  8 H                -0.3      -0.5      -0.4      -0.1      -0.0      -0.0
  9 H               138.3     103.9     105.1     107.0      -0.0      -0.0
 10 H                 0.0      -0.0      -0.0      -0.0     152.5     103.3
 11 H                -0.0      -0.0      -0.0      -0.0      -0.5      -0.0

                    120       121       122       123       124       125   
                   0.00000   0.00000   0.00000   0.00000   0.00000   0.00000
                   0.00008   0.00003   0.00104   0.00030   0.00008   0.00006
                  --------  --------  --------  --------  --------  --------
  1 N                 0.0      -0.7       0.1      -0.0      -0.0      -0.0
  2 C                -8.2      -4.8      -1.4      -0.1      -0.1      -0.2
  3 C                 0.0       0.2     -44.0      -3.1      -6.2      -6.3
  4 C                -0.0      -0.0      -1.4      -0.1      -0.4      -0.4
  6 N                -0.0      -0.0      -0.2      -0.0       0.0      -0.1
  7 H                -0.2      -0.0       0.0      -0.0      -0.0      -0.0
 10 H               108.6     105.6      -0.5      -0.0      -0.1      -0.1
 11 H                -0.1      -0.1     147.7     103.4     107.0     107.2

                    126       127       128       129       130       131   
                   0.00000   0.00000   0.00000   0.00000   0.00000   0.00000
                   0.00183   0.00015   0.00013   0.00002   0.00187   0.00015
                  --------  --------  --------  --------  --------  --------
  3 C                -0.3      -0.2       0.1      -0.1      -0.3      -0.2
  4 C               -35.0      -3.1      -4.6      -8.2     -34.8      -3.1
  5 C                -0.0      -0.2       0.1      -0.2      -0.0      -0.1
  6 N                 0.0      -0.0      -0.2      -0.1       0.0      -0.0
 11 H                -0.1      -0.1      -0.0      -0.0      -0.1      -0.1
 12 H               135.8     104.2     105.5     108.6      -0.2      -0.6
 13 H                -0.2      -0.6      -0.8      -0.0     135.6     104.2
 14 H                -0.2      -0.0      -0.0      -0.0      -0.2      -0.0

                    132       133       134       135       136       137   
                   0.00000   0.00000   0.00000   0.00000   0.00000   0.00000
                   0.00013   0.00002   0.00159   0.00080   0.00073   0.00002
                  --------  --------  --------  --------  --------  --------
  1 N                -0.1       0.0      -0.4      -0.3      -0.0      -0.0
  3 C                 0.1      -0.1      -0.1      -0.1      -0.0      -0.0
  4 C                -4.6      -8.1      -0.6      -0.0      -0.0      -0.1
  5 C                 0.1      -0.2      -5.6      -0.7      -0.1      -0.1
  6 N                -0.2      -0.1      -6.5      -2.8      -3.1      -4.6
 12 H                -0.8      -0.0      -0.2      -0.0      -0.0      -0.0
 13 H               105.6     108.5      -0.2      -0.0      -0.0      -0.0
 14 H                -0.0      -0.0     113.6     103.8     103.2     104.9


Storing NBOs: 2597.nbo
                                    *** NBOs were stored ***

                                *** returned from GENNBO program ***

-------
TIMINGS
-------

Total SCF time: 0 days 0 hours 0 min 5 sec 

Total time                  ....       5.587 sec
Sum of individual times     ....       6.059 sec  (108.5%)

Fock matrix formation       ....       3.661 sec  ( 65.5%)
  Coulomb formation         ....       1.954 sec  ( 53.4% of F)
  Split-RI-J                ....       1.947 sec  ( 53.2% of F)
  XC integration            ....       1.702 sec  ( 46.5% of F)
    Basis function eval.    ....       0.568 sec  ( 33.4% of XC)
    Density eval.           ....       0.310 sec  ( 18.2% of XC)
    XC-Functional eval.     ....       0.100 sec  (  5.9% of XC)
    XC-Potential eval.      ....       0.689 sec  ( 40.5% of XC)
Diagonalization             ....       0.021 sec  (  0.4%)
Density matrix formation    ....       0.003 sec  (  0.0%)
Population analysis         ....       1.337 sec  ( 23.9%)
Initial guess               ....       0.361 sec  (  6.5%)
Orbital Transformation      ....       0.000 sec  (  0.0%)
Orbital Orthonormalization  ....       0.000 sec  (  0.0%)
DIIS solution               ....       0.005 sec  (  0.1%)
SOSCF solution              ....       0.013 sec  (  0.2%)
Grid generation             ....       0.658 sec  ( 11.8%)
           ************************************************************
           *              Shut down parallel processing               *
           ************************************************************

-------------------------   --------------------
FINAL SINGLE POINT ENERGY      -304.218893110897
-------------------------   --------------------


                            ***************************************
                            *     ORCA property calculations      *
                            ***************************************

                                    ---------------------
                                    Active property flags
                                    ---------------------
   (+) Dipole Moment


------------------------------------------------------------------------------
                       ORCA ELECTRIC PROPERTIES CALCULATION
------------------------------------------------------------------------------

Dipole Moment Calculation                       ... on
Quadrupole Moment Calculation                   ... off
Polarizability Calculation                      ... off
GBWName                                         ... 2597.gbw
Electron density file                           ... 2597.scfp.tmp

-------------
DIPOLE MOMENT
-------------
                                X             Y             Z
Electronic contribution:      1.06273       0.39288       0.15419
Nuclear contribution   :     -0.79615      -0.97086      -0.07025
                        -----------------------------------------
Total Dipole Moment    :      0.26658      -0.57798       0.08393
                        -----------------------------------------
Magnitude (a.u.)       :      0.64200
Magnitude (Debye)      :      1.63183


Timings for individual modules:

Sum of individual times         ...        6.745 sec (=   0.112 min)
GTO integral calculation        ...        0.471 sec (=   0.008 min)   7.0 %
SCF iterations                  ...        6.274 sec (=   0.105 min)  93.0 %
                             ****ORCA TERMINATED NORMALLY****
TOTAL RUN TIME: 0 days 0 hours 0 minutes 7 seconds 133 msec
