
                                 *****************
                                 * O   R   C   A *
                                 *****************

           --- An Ab Initio, DFT and Semiempirical electronic structure package ---

                  #######################################################
                  #                        -***-                        #
                  #  Department of molecular theory and spectroscopy    #
                  #              Directorship: Frank Neese              #
                  # Max Planck Institute for Chemical Energy Conversion #
                  #                  D-45470 Muelheim/Ruhr              #
                  #                       Germany                       #
                  #                                                     #
                  #                  All rights reserved                #
                  #                        -***-                        #
                  #######################################################


                         Program Version 3.0.3 - RELEASE   -


 With contributions from (in alphabetic order):
   Ute Becker             : Parallelization
   Dmytro Bykov           : SCF Hessian
   Dmitry Ganyushin       : Spin-Orbit,Spin-Spin,Magnetic field MRCI
   Andreas Hansen         : Spin unrestricted coupled pair/coupled cluster methods
   Dimitrios Liakos       : Extrapolation schemes; parallel MDCI
   Robert Izsak           : Overlap fitted RIJCOSX, COSX-SCS-MP3
   Christian Kollmar      : KDIIS, OOCD, Brueckner-CCSD(T), CCSD density
   Simone Kossmann        : Meta GGA functionals, TD-DFT gradient, OOMP2, MP2 Hessian
   Taras Petrenko         : DFT Hessian,TD-DFT gradient, ASA and ECA modules, normal mode analysis, Resonance Raman, ABS, FL, XAS/XES, NRVS
   Christoph Reimann      : Effective Core Potentials
   Michael Roemelt        : Restricted open shell CIS
   Christoph Riplinger    : Improved optimizer, TS searches, QM/MM, DLPNO-CCSD
   Barbara Sandhoefer     : DKH picture change effects
   Igor Schapiro          : Molecular dynamics
   Kantharuban Sivalingam : CASSCF convergence, NEVPT2
   Boris Wezisla          : Elementary symmetry handling
   Frank Wennmohs         : Technical directorship


 We gratefully acknowledge several colleagues who have allowed us to
 interface, adapt or use parts of their codes:
   Stefan Grimme, W. Hujo, H. Kruse, T. Risthaus : VdW corrections, initial TS optimization,
                                                   DFT functionals, gCP
   Ed Valeev                                     : LibInt (2-el integral package), F12 methods
   Garnet Chan, S. Sharma, R. Olivares           : DMRG
   Ulf Ekstrom                                   : XCFun DFT Library
   Mihaly Kallay                                 : mrcc  (arbitrary order and MRCC methods)
   Andreas Klamt, Michael Diedenhofen            : otool_cosmo (COSMO solvation model)
   Frank Weinhold                                : gennbo (NPA and NBO analysis)
   Christopher J. Cramer and Donald G. Truhlar   : smd solvation model


 Your calculation uses the libint2 library for the computation of 2-el integrals
 For citations please refer to: http://libint.valeyev.net

 This ORCA versions uses:
   CBLAS   interface :  Fast vector & matrix operations
   LAPACKE interface :  Fast linear algebra routines
   SCALAPACK package :  Parallel linear algebra routines


Your calculation utilizes the basis: Ahlrichs-VDZ
Cite in your paper:
H - Kr: A. Schaefer, H. Horn and R. Ahlrichs, J. Chem. Phys. 97, 2571 (1992).

Your calculation utilizes the basis: Ahlrichs SVPalls1+f
Cite in your paper:
Rb - Xe: A. Schaefer, C. Huber and R. Ahlrichs, J. Chem. Phys. 100, 5829 (1994).

================================================================================
                                        WARNINGS
                       Please study these warnings very carefully!
================================================================================
Now building the actual basis set


INFO   : the flag for use of LIBINT has been found!

================================================================================
                                       INPUT FILE
================================================================================
NAME = 2713.inp
|  1> ! RI PBE def2-SVP def2-SVP/J NBO PAL2
|  2> % maxcore 2000
|  3> % output
|  4>     # printlevel mini
|  5>     print[ P_Basis ] 0
|  6>     print[ P_SCFInfo ] 1
|  7>     print[ P_SCFIterInfo ] 1
|  8>     print[ P_OrbEn ] 0
|  9>     print[ P_Cartesian ] 0
| 10> end
| 11> *xyz 0 1
| 12>  C        1.0452710000     0.0719950000     0.4137370000 
| 13>  N        2.4386490000     0.0773990000     0.0477080000 
| 14>  C        3.0248190000    -0.8273620000    -0.7795170000 
| 15>  C        2.1198360000    -1.6462190000    -1.6367730000 
| 16>  C        4.3777020000    -0.9458250000    -0.8372810000 
| 17>  C        5.0286870000    -1.8231200000    -1.7238540000 
| 18>  N        5.5793410000    -2.5417510000    -2.4433960000 
| 19>  H        0.8231680000     0.9939160000     0.9510460000 
| 20>  H        0.7710690000    -0.7731300000     1.0576920000 
| 21>  H        0.4089420000     0.0492640000    -0.4717290000 
| 22>  H        3.0583080000     0.5568110000     0.6790030000 
| 23>  H        1.5041980000    -1.0033040000    -2.2717540000 
| 24>  H        1.4433560000    -2.2499840000    -1.0258640000 
| 25>  H        2.6988530000    -2.3114360000    -2.2736130000 
| 26>  H        5.0114810000    -0.3437530000    -0.1946980000 
| 27> *
| 28> 
| 29>                          ****END OF INPUT****
================================================================================

                       ****************************
                       * Single Point Calculation *
                       ****************************

--------------------------------
INTERNAL COORDINATES (ANGSTROEM)
--------------------------------
 C      0   0   0   0.000000     0.000     0.000
 N      1   0   0   1.440663     0.000     0.000
 C      2   1   0   1.358856   124.707     0.000
 C      3   2   1   1.491445   116.983    16.823
 C      3   2   1   1.359288   120.880   195.199
 C      5   3   2   1.406926   122.796   183.097
 N      6   5   3   1.156456   179.096   192.758
 H      1   2   3   1.089940   108.612   189.009
 H      1   2   3   1.097315   113.183    68.911
 H      1   2   3   1.090633   110.984   306.852
 H      2   1   3   1.006154   115.978   202.460
 H      4   3   2   1.093412   110.647    58.086
 H      4   3   2   1.093328   110.945   298.848
 H      4   3   2   1.087814   110.442   178.390
 H      5   3   2   1.084933   120.523     2.303

---------------------------
INTERNAL COORDINATES (A.U.)
---------------------------
 C      0   0   0   0.000000     0.000     0.000
 N      1   0   0   2.722458     0.000     0.000
 C      2   1   0   2.567865   124.707     0.000
 C      3   2   1   2.818423   116.983    16.823
 C      3   2   1   2.568681   120.880   195.199
 C      5   3   2   2.658704   122.796   183.097
 N      6   5   3   2.185386   179.096   192.758
 H      1   2   3   2.059688   108.612   189.009
 H      1   2   3   2.073626   113.183    68.911
 H      1   2   3   2.060999   110.984   306.852
 H      2   1   3   1.901356   115.978   202.460
 H      4   3   2   2.066250   110.647    58.086
 H      4   3   2   2.066091   110.945   298.848
 H      4   3   2   2.055671   110.442   178.390
 H      5   3   2   2.050226   120.523     2.303



           ************************************************************
           *        Program running with 2 parallel MPI-processes     *
           *              working on a common directory               *
           ************************************************************
------------------------------------------------------------------------------
                           ORCA GTO INTEGRAL CALCULATION
                           -- RI-GTO INTEGRALS CHOSEN --
------------------------------------------------------------------------------

                         BASIS SET STATISTICS AND STARTUP INFO

Gaussian basis set:
 # of primitive gaussian shells          ...  124
 # of primitive gaussian functions       ...  224
 # of contracted shells                  ...   66
 # of contracted basis functions         ...  138
 Highest angular momentum                ...    2
 Maximum contraction depth               ...    5
Auxiliary gaussian basis set:
 # of primitive gaussian shells          ...  232
 # of primitive gaussian functions       ...  618
 # of contracted shells                  ...  145
 # of contracted aux-basis functions     ...  431
 Highest angular momentum                ...    4
 Maximum contraction depth               ...    7
Ratio of auxiliary to basis functions    ...  3.12
Integral package used                  ... LIBINT
 One Electron integrals                  ... done
 Ordering auxiliary basis shells         ... done
 Integral threshhold             Thresh  ...  1.000e-10
 Primitive cut-off               TCut    ...  1.000e-11
 Pre-screening matrix                    ... done
 Shell pair data                         ... 
 Ordering of the shell pairs             ... done (   0.000 sec) 2096 of 2211 pairs
 Determination of significant pairs      ... done (   0.000 sec)
 Creation of shell pair data             ... done (   0.000 sec)
 Storage of shell pair data              ... done (   0.000 sec)
 Shell pair data done in (   0.001 sec)
 Computing two index integrals           ... done
 Cholesky decomposition of the V-matrix  ... done


Timings:
 Total evaluation time                   ...   0.148 sec (  0.002 min)
 One electron matrix time                ...   0.015 sec (  0.000 min) = 10.3%
 Schwartz matrix evaluation time         ...   0.071 sec (  0.001 min) = 48.3%
 Two index repulsion integral time       ...   0.005 sec (  0.000 min) =  3.2%
 Cholesky decomposition of V             ...   0.003 sec (  0.000 min) =  2.2%
 Three index repulsion integral time     ...   0.000 sec (  0.000 min) =  0.0%

           ************************************************************
           *              Shut down parallel processing               *
           ************************************************************


           ************************************************************
           *        Program running with 2 parallel MPI-processes     *
           *              working on a common directory               *
           ************************************************************
-------------------------------------------------------------------------------
                                 ORCA SCF
-------------------------------------------------------------------------------

------------
SCF SETTINGS
------------
Hamiltonian:
 Density Functional     Method          .... DFT(GTOs)
 Exchange Functional    Exchange        .... PBE
   PBE kappa parameter  XKappa          ....  0.804000
 Correlation Functional Correlation     .... PBE
 LDA part of GGA corr.  LDAOpt          .... PW91-LDA
 Gradients option       PostSCFGGA      .... off
   NL short-range parameter             ....  6.400000
 RI-approximation to the Coulomb term is turned on
   Number of auxiliary basis functions  .... 431


General Settings:
 Integral files         IntName         .... 2713
 Hartree-Fock type      HFTyp           .... RHF
 Total Charge           Charge          ....    0
 Multiplicity           Mult            ....    1
 Number of Electrons    NEL             ....   52
 Basis Dimension        Dim             ....  138
 Nuclear Repulsion      ENuc            ....    272.7121653675 Eh

Convergence Acceleration:
 DIIS                   CNVDIIS         .... on
   Start iteration      DIISMaxIt       ....    12
   Startup error        DIISStart       ....  0.200000
   # of expansion vecs  DIISMaxEq       ....     5
   Bias factor          DIISBfac        ....   1.050
   Max. coefficient     DIISMaxC        ....  10.000
 Newton-Raphson         CNVNR           .... off
 SOSCF                  CNVSOSCF        .... on
   Start iteration      SOSCFMaxIt      ....   150
   Startup grad/error   SOSCFStart      ....  0.003300
 Level Shifting         CNVShift        .... on
   Level shift para.    LevelShift      ....    0.2500
   Turn off err/grad.   ShiftErr        ....    0.0010
 Zerner damping         CNVZerner       .... off
 Static damping         CNVDamp         .... on
   Fraction old density DampFac         ....    0.7000
   Max. Damping (<1)    DampMax         ....    0.9800
   Min. Damping (>=0)   DampMin         ....    0.0000
   Turn off err/grad.   DampErr         ....    0.1000
 Fernandez-Rico         CNVRico         .... off

SCF Procedure:
 Maximum # iterations   MaxIter         ....   125
 SCF integral mode      SCFMode         .... Direct
   Integral package                     .... LIBINT
 Reset frequeny         DirectResetFreq ....    20
 Integral Threshold     Thresh          ....  1.000e-10 Eh
 Primitive CutOff       TCut            ....  1.000e-11 Eh

Convergence Tolerance:
 Convergence Check Mode ConvCheckMode   .... Total+1el-Energy
 Energy Change          TolE            ....  1.000e-06 Eh
 1-El. energy change                    ....  1.000e-03 Eh
 Orbital Gradient       TolG            ....  5.000e-05
 Orbital Rotation angle TolX            ....  5.000e-05
 DIIS Error             TolErr          ....  1.000e-06


Diagonalization of the overlap matrix:
Smallest eigenvalue                        ... 7.372e-04
Time for diagonalization                   ...    0.011 sec
Threshold for overlap eigenvalues          ... 1.000e-08
Number of eigenvalues below threshold      ... 0
Time for construction of square roots      ...    0.002 sec
Total time needed                          ...    0.014 sec

-------------------
DFT GRID GENERATION
-------------------

General Integration Accuracy     IntAcc      ...  4.340
Radial Grid Type                 RadialGrid  ... Gauss-Chebyshev
Angular Grid (max. acc.)         AngularGrid ... Lebedev-110
Angular grid pruning method      GridPruning ... 3 (G Style)
Weight generation scheme         WeightScheme... Becke
Basis function cutoff            BFCut       ...    1.0000e-10
Integration weight cutoff        WCut        ...    1.0000e-14
Grids for H and He will be reduced by one unit

# of grid points (after initial pruning)     ...  18036 (   0.0 sec)
# of grid points (after weights+screening)   ...  16786 (   0.1 sec)
nearest neighbour list constructed           ...    0.0 sec
Grid point re-assignment to atoms done       ...    0.0 sec
Grid point division into batches done        ...    0.0 sec
Reduced shell lists constructed in    0.1 sec

Total number of grid points                  ...    16786
Total number of batches                      ...      269
Average number of points per batch           ...       62
Average number of grid points per atom       ...     1119
Average number of shells per batch           ...    49.16 (74.49%)
Average number of basis functions per batch  ...   101.38 (73.47%)
Average number of large shells per batch     ...    38.59 (78.49%)
Average number of large basis fcns per batch ...    78.63 (77.56%)
Maximum spatial batch extension              ...  19.64, 17.34, 26.31 au
Average spatial batch extension              ...   1.61,  1.63,  1.72 au

Time for grid setup =    0.136 sec

------------------------------
INITIAL GUESS: MODEL POTENTIAL
------------------------------
Loading Hartree-Fock densities                     ... done
Calculating cut-offs                               ... done
Setting up the integral package                    ... done
Initializing the effective Hamiltonian             ... done
Starting the Coulomb interaction                   ... done (   0.0 sec)
Reading the grid                                   ... done
Mapping shells                                     ... done
Starting the XC term evaluation                    ... done (   0.1 sec)
  promolecular density results
     # of electrons  =     52.002926921
     EX              =    -40.962455043
     EC              =     -1.695103344
     EX+EC           =    -42.657558387
Transforming the Hamiltonian                       ... done (   0.0 sec)
Diagonalizing the Hamiltonian                      ... done (   0.0 sec)
Back transforming the eigenvectors                 ... done (   0.0 sec)
Now organizing SCF variables                       ... done
                      ------------------
                      INITIAL GUESS DONE (   0.4 sec)
                      ------------------
--------------
SCF ITERATIONS
--------------
ITER       Energy         Delta-E        Max-DP      RMS-DP      [F,P]     Damp
               ***  Starting incremental Fock matrix formation  ***
  0   -304.0162882739   0.000000000000 0.09401939  0.00270979  0.2013537 0.7000
  1   -304.1139585177  -0.097670243790 0.04276050  0.00184175  0.0667831 0.7000
                               ***Turning on DIIS***
  2   -304.1453154913  -0.031356973602 0.07254251  0.00305127  0.0273314 0.0000
  3   -304.1963452592  -0.051029767943 0.03348213  0.00139276  0.0427307 0.0000
  4   -304.2089264445  -0.012581185263 0.01949922  0.00056749  0.0269960 0.0000
                      *** Initiating the SOSCF procedure ***
                           *** Shutting down DIIS ***
                      *** Re-Reading the Fockian *** 
                      *** Removing any level shift *** 
ITER      Energy       Delta-E        Grad      Rot      Max-DP    RMS-DP
  5   -304.21140474  -0.0024783001  0.001102  0.001102  0.005019  0.000167
               *** Restarting incremental Fock matrix formation ***
  6   -304.21149027  -0.0000855269  0.000928  0.006457  0.003031  0.000147
  7   -304.21144274   0.0000475353  0.001813  0.002702  0.002058  0.000084
  8   -304.21150272  -0.0000599877  0.000274  0.002133  0.001289  0.000047
  9   -304.21149611   0.0000066128  0.000806  0.001649  0.000887  0.000032
 10   -304.21150391  -0.0000078000  0.000136  0.000357  0.000562  0.000021
 11   -304.21150286   0.0000010473  0.000177  0.000232  0.000408  0.000014
 12   -304.21150432  -0.0000014519  0.000019  0.000065  0.000102  0.000003
                 **** Energy Check signals convergence ****
              ***Rediagonalizing the Fockian in SOSCF/NRSCF***

               *****************************************************
               *                     SUCCESS                       *
               *           SCF CONVERGED AFTER  13 CYCLES          *
               *****************************************************

Setting up the final grid:

General Integration Accuracy     IntAcc      ...  4.670
Radial Grid Type                 RadialGrid  ... Gauss-Chebyshev
Angular Grid (max. acc.)         AngularGrid ... Lebedev-302
Angular grid pruning method      GridPruning ... 3 (G Style)
Weight generation scheme         WeightScheme... Becke
Basis function cutoff            BFCut       ...    1.0000e-10
Integration weight cutoff        WCut        ...    1.0000e-14
Grids for H and He will be reduced by one unit

# of grid points (after initial pruning)     ...  70636 (   0.0 sec)
# of grid points (after weights+screening)   ...  65113 (   0.1 sec)
nearest neighbour list constructed           ...    0.0 sec
Grid point re-assignment to atoms done       ...    0.0 sec
Grid point division into batches done        ...    0.2 sec
Reduced shell lists constructed in    0.4 sec

Total number of grid points                  ...    65113
Total number of batches                      ...     1023
Average number of points per batch           ...       63
Average number of grid points per atom       ...     4341
Average number of shells per batch           ...    45.86 (69.48%)
Average number of basis functions per batch  ...    93.81 (67.98%)
Average number of large shells per batch     ...    35.47 (77.35%)
Average number of large basis fcns per batch ...    71.57 (76.29%)
Maximum spatial batch extension              ...  18.03, 18.04, 19.12 au
Average spatial batch extension              ...   1.03,  1.07,  1.11 au

Final grid set up in    0.5 sec
Final integration                            ... done (   0.4 sec)
Change in XC energy                          ...     0.000815670
Integrated number of electrons               ...    51.999916299
Previous integrated no of electrons          ...    52.004749732

----------------
TOTAL SCF ENERGY
----------------

Total Energy       :         -304.21068863 Eh           -8277.99368 eV

Components:
Nuclear Repulsion  :          272.71216537 Eh            7420.87529 eV
Electronic Energy  :         -576.92285400 Eh          -15698.86897 eV

One Electron Energy:         -949.92301983 Eh          -25848.71949 eV
Two Electron Energy:          373.00016584 Eh           10149.85052 eV

Virial components:
Potential Energy   :         -605.49989368 Eh          -16476.48976 eV
Kinetic Energy     :          301.28920505 Eh            8198.49607 eV
Virial Ratio       :            2.00969661


DFT components:
N(Alpha)           :       25.999958149436 electrons
N(Beta)            :       25.999958149436 electrons
N(Total)           :       51.999916298872 electrons
E(X)               :      -41.764675315396 Eh       
E(C)               :       -1.714548580287 Eh       
E(XC)              :      -43.479223895683 Eh       

---------------
SCF CONVERGENCE
---------------

  Last Energy change         ...    1.7813e-08  Tolerance :   1.0000e-06
  Last MAX-Density change    ...    7.1732e-05  Tolerance :   1.0000e-05
  Last RMS-Density change    ...    2.0432e-06  Tolerance :   1.0000e-06
  Last Orbital Gradient      ...    2.8594e-05  Tolerance :   5.0000e-05
  Last Orbital Rotation      ...    3.8884e-05  Tolerance :   5.0000e-05

             **** THE GBW FILE WAS UPDATED (2713.gbw) ****
             **** DENSITY FILE WAS UPDATED (2713.scfp.tmp) ****
             **** ENERGY FILE WAS UPDATED (2713.en.tmp) ****

                    ********************************
                    * MULLIKEN POPULATION ANALYSIS *
                    ********************************

-----------------------
MULLIKEN ATOMIC CHARGES
-----------------------
   0 C :    0.066691
   1 N :   -0.138047
   2 C :   -0.092965
   3 C :    0.079210
   4 C :   -0.131399
   5 C :   -0.155242
   6 N :    0.002634
   7 H :    0.036974
   8 H :    0.038892
   9 H :    0.041657
  10 H :    0.115608
  11 H :    0.046022
  12 H :    0.039299
  13 H :    0.047065
  14 H :    0.003599
Sum of atomic charges:   -0.0000000

--------------------------------
MULLIKEN REDUCED ORBITAL CHARGES
--------------------------------
  0 C s       :     2.978232  s :     2.978232
      pz      :     1.033312  p :     2.915828
      px      :     0.845309
      py      :     1.037207
      dz2     :     0.003916  d :     0.039249
      dxz     :     0.011023
      dyz     :     0.006329
      dx2y2   :     0.010767
      dxy     :     0.007213
  1 N s       :     3.349622  s :     3.349622
      pz      :     1.317906  p :     3.766553
      px      :     1.058809
      py      :     1.389838
      dz2     :     0.002735  d :     0.021872
      dxz     :     0.006584
      dyz     :     0.002956
      dx2y2   :     0.004276
      dxy     :     0.005322
  2 C s       :     3.072983  s :     3.072983
      pz      :     0.990806  p :     2.957845
      px      :     0.995458
      py      :     0.971581
      dz2     :     0.011346  d :     0.062137
      dxz     :     0.014622
      dyz     :     0.008880
      dx2y2   :     0.011839
      dxy     :     0.015450
  3 C s       :     2.888841  s :     2.888841
      pz      :     1.002982  p :     3.008171
      px      :     0.989294
      py      :     1.015895
      dz2     :     0.001752  d :     0.023778
      dxz     :     0.007085
      dyz     :     0.006424
      dx2y2   :     0.001499
      dxy     :     0.007019
  4 C s       :     3.104281  s :     3.104281
      pz      :     1.020029  p :     2.996813
      px      :     0.927958
      py      :     1.048826
      dz2     :     0.004355  d :     0.030304
      dxz     :     0.007775
      dyz     :     0.003974
      dx2y2   :     0.006767
      dxy     :     0.007433
  5 C s       :     3.126475  s :     3.126475
      pz      :     0.973120  p :     2.980421
      px      :     1.027209
      py      :     0.980092
      dz2     :     0.014185  d :     0.048346
      dxz     :     0.007963
      dyz     :     0.008158
      dx2y2   :     0.010216
      dxy     :     0.007826
  6 N s       :     3.557597  s :     3.557597
      pz      :     1.162235  p :     3.409659
      px      :     1.083786
      py      :     1.163638
      dz2     :     0.006675  d :     0.030110
      dxz     :     0.005462
      dyz     :     0.006748
      dx2y2   :     0.005766
      dxy     :     0.005458
  7 H s       :     0.940090  s :     0.940090
      pz      :     0.007629  p :     0.022935
      px      :     0.003664
      py      :     0.011643
  8 H s       :     0.938488  s :     0.938488
      pz      :     0.008528  p :     0.022619
      px      :     0.003640
      py      :     0.010451
  9 H s       :     0.935264  s :     0.935264
      pz      :     0.010875  p :     0.023079
      px      :     0.006432
      py      :     0.005772
 10 H s       :     0.839772  s :     0.839772
      pz      :     0.016144  p :     0.044620
      px      :     0.013529
      py      :     0.014947
 11 H s       :     0.929619  s :     0.929619
      pz      :     0.008400  p :     0.024360
      px      :     0.008046
      py      :     0.007913
 12 H s       :     0.936455  s :     0.936455
      pz      :     0.007527  p :     0.024246
      px      :     0.008538
      py      :     0.008181
 13 H s       :     0.928223  s :     0.928223
      pz      :     0.008176  p :     0.024713
      px      :     0.008025
      py      :     0.008512
 14 H s       :     0.972003  s :     0.972003
      pz      :     0.008581  p :     0.024398
      px      :     0.007583
      py      :     0.008234


                     *******************************
                     * LOEWDIN POPULATION ANALYSIS *
                     *******************************

----------------------
LOEWDIN ATOMIC CHARGES
----------------------
   0 C :    0.009503
   1 N :    0.010364
   2 C :    0.035662
   3 C :   -0.053135
   4 C :   -0.175865
   5 C :   -0.060778
   6 N :   -0.105275
   7 H :    0.034163
   8 H :    0.020940
   9 H :    0.031705
  10 H :    0.077657
  11 H :    0.044252
  12 H :    0.042723
  13 H :    0.050165
  14 H :    0.037919

-------------------------------
LOEWDIN REDUCED ORBITAL CHARGES
-------------------------------
  0 C s       :     2.828323  s :     2.828323
      pz      :     1.073042  p :     3.063518
      px      :     0.906860
      py      :     1.083616
      dz2     :     0.008891  d :     0.098656
      dxz     :     0.027340
      dyz     :     0.018375
      dx2y2   :     0.028132
      dxy     :     0.015918
  1 N s       :     3.040242  s :     3.040242
      pz      :     1.349538  p :     3.893415
      px      :     1.144213
      py      :     1.399663
      dz2     :     0.006373  d :     0.055979
      dxz     :     0.017205
      dyz     :     0.007884
      dx2y2   :     0.011345
      dxy     :     0.013172
  2 C s       :     2.840628  s :     2.840628
      pz      :     0.952625  p :     2.974169
      px      :     1.071678
      py      :     0.949867
      dz2     :     0.024894  d :     0.149541
      dxz     :     0.035659
      dyz     :     0.020566
      dx2y2   :     0.030278
      dxy     :     0.038144
  3 C s       :     2.826865  s :     2.826865
      pz      :     1.053713  p :     3.158521
      px      :     1.047541
      py      :     1.057266
      dz2     :     0.003460  d :     0.067749
      dxz     :     0.021018
      dyz     :     0.019291
      dx2y2   :     0.003133
      dxy     :     0.020846
  4 C s       :     2.847007  s :     2.847007
      pz      :     1.097996  p :     3.240173
      px      :     1.038925
      py      :     1.103253
      dz2     :     0.011286  d :     0.088685
      dxz     :     0.023149
      dyz     :     0.011658
      dx2y2   :     0.020671
      dxy     :     0.021922
  5 C s       :     2.905917  s :     2.905917
      pz      :     1.030303  p :     3.036391
      px      :     0.975444
      py      :     1.030645
      dz2     :     0.030867  d :     0.118470
      dxz     :     0.021093
      dyz     :     0.023891
      dx2y2   :     0.021978
      dxy     :     0.020639
  6 N s       :     3.423157  s :     3.423157
      pz      :     1.247210  p :     3.629666
      px      :     1.133287
      py      :     1.249170
      dz2     :     0.009731  d :     0.052452
      dxz     :     0.010258
      dyz     :     0.013703
      dx2y2   :     0.008511
      dxy     :     0.010249
  7 H s       :     0.900404  s :     0.900404
      pz      :     0.019930  p :     0.065433
      px      :     0.011657
      py      :     0.033846
  8 H s       :     0.912617  s :     0.912617
      pz      :     0.023457  p :     0.066443
      px      :     0.012527
      py      :     0.030460
  9 H s       :     0.901651  s :     0.901651
      pz      :     0.032386  p :     0.066644
      px      :     0.020695
      py      :     0.013563
 10 H s       :     0.797775  s :     0.797775
      pz      :     0.046240  p :     0.124568
      px      :     0.036418
      py      :     0.041910
 11 H s       :     0.887751  s :     0.887751
      pz      :     0.023318  p :     0.067998
      px      :     0.021894
      py      :     0.022785
 12 H s       :     0.889323  s :     0.889323
      pz      :     0.021730  p :     0.067954
      px      :     0.023753
      py      :     0.022471
 13 H s       :     0.879635  s :     0.879635
      pz      :     0.023289  p :     0.070199
      px      :     0.022644
      py      :     0.024266
 14 H s       :     0.889360  s :     0.889360
      pz      :     0.025793  p :     0.072722
      px      :     0.021798
      py      :     0.025131


                      *****************************
                      * MAYER POPULATION ANALYSIS *
                      *****************************

  NA   - Mulliken gross atomic population
  ZA   - Total nuclear charge
  QA   - Mulliken gross atomic charge
  VA   - Mayer's total valence
  BVA  - Mayer's bonded valence
  FA   - Mayer's free valence

  ATOM       NA         ZA         QA         VA         BVA        FA
  0 C      5.9333     6.0000     0.0667     3.9704     3.9704     0.0000
  1 N      7.1380     7.0000    -0.1380     3.3808     3.3808     0.0000
  2 C      6.0930     6.0000    -0.0930     4.2929     4.2929    -0.0000
  3 C      5.9208     6.0000     0.0792     3.9380     3.9380     0.0000
  4 C      6.1314     6.0000    -0.1314     3.8363     3.8363    -0.0000
  5 C      6.1552     6.0000    -0.1552     4.1857     4.1857    -0.0000
  6 N      6.9974     7.0000     0.0026     3.0979     3.0979     0.0000
  7 H      0.9630     1.0000     0.0370     0.9891     0.9891    -0.0000
  8 H      0.9611     1.0000     0.0389     0.9793     0.9793     0.0000
  9 H      0.9583     1.0000     0.0417     0.9975     0.9975    -0.0000
 10 H      0.8844     1.0000     0.1156     0.9989     0.9989     0.0000
 11 H      0.9540     1.0000     0.0460     0.9928     0.9928    -0.0000
 12 H      0.9607     1.0000     0.0393     0.9939     0.9939    -0.0000
 13 H      0.9529     1.0000     0.0471     1.0261     1.0261    -0.0000
 14 H      0.9964     1.0000     0.0036     0.9990     0.9990     0.0000

  Mayer bond orders larger than 0.1
B(  0-C ,  1-N ) :   1.0361 B(  0-C ,  7-H ) :   0.9689 B(  0-C ,  8-H ) :   0.9589 
B(  0-C ,  9-H ) :   0.9582 B(  1-N ,  2-C ) :   1.2686 B(  1-N , 10-H ) :   0.9314 
B(  2-C ,  3-C ) :   1.1129 B(  2-C ,  4-C ) :   1.6089 B(  3-C , 11-H ) :   0.9331 
B(  3-C , 12-H ) :   0.9275 B(  3-C , 13-H ) :   0.9214 B(  4-C ,  5-C ) :   1.1845 
B(  4-C , 14-H ) :   0.9344 B(  5-C ,  6-N ) :   2.8945 


 *********************************** NBO 6.0 ***********************************
             N A T U R A L   A T O M I C   O R B I T A L   A N D
          N A T U R A L   B O N D   O R B I T A L   A N A L Y S I S
 ***************************** Kiya KiyaLu (100703) ****************************
  (c) Copyright 1996-2015 Board of Regents of the University of Wisconsin System
      on behalf of the Theoretical Chemistry Institute.  All rights reserved.

          Cite this program as:

          NBO 6.0.  E. D. Glendening, J. K. Badenhoop, A. E. Reed,
          J. E. Carpenter, J. A. Bohmann, C. M. Morales, C. R. Landis,
          and F. Weinhold (Theoretical Chemistry Institute, University
          of Wisconsin, Madison, WI, 2013); http://nbo6.chem.wisc.edu/

       /NPA    / : Natural Population Analysis
       /NBO    / : Natural Bond Orbital Analysis
       /AONBO  / : Write the AO to NBO transformation to lfn77
       /FILE   / : Set to 2713

 Filename set to 2713

 Job title:  *** NBO job generated by orca_scf

 Warning: MOs are non-orthogonal; program will continue

 Warning: -3176.31972 electrons reside outside the linearly independent MO space


 NATURAL POPULATIONS:  Natural atomic orbital occupancies

  NAO Atom No lang   Type(AO)    Occupancy      Energy
 -------------------------------------------------------
   1    C  1  s      Cor( 1s)     1.99926      -9.84096
   2    C  1  s      Val( 2s)     1.07149      -0.24282
   3    C  1  s      Ryd( 3s)     0.00079       0.75802
   4    C  1  px     Val( 2p)     0.90305      -0.08830
   5    C  1  px     Ryd( 3p)     0.00162       0.40523
   6    C  1  py     Val( 2p)     1.23606      -0.10526
   7    C  1  py     Ryd( 3p)     0.00215       0.58203
   8    C  1  pz     Val( 2p)     1.21426      -0.10275
   9    C  1  pz     Ryd( 3p)     0.00137       0.52627
  10    C  1  dxy    Ryd( 3d)     0.00067       2.02058
  11    C  1  dxz    Ryd( 3d)     0.00099       2.21786
  12    C  1  dyz    Ryd( 3d)     0.00061       2.27729
  13    C  1  dx2y2  Ryd( 3d)     0.00107       2.25220
  14    C  1  dz2    Ryd( 3d)     0.00043       2.06610

  15    N  2  s      Cor( 1s)     1.99911     -13.88633
  16    N  2  s      Val( 2s)     1.22248      -0.48051
  17    N  2  s      Ryd( 3s)     0.00072       1.04189
  18    N  2  px     Val( 2p)     1.31491      -0.23586
  19    N  2  px     Ryd( 3p)     0.00192       1.23256
  20    N  2  py     Val( 2p)     1.54303      -0.23369
  21    N  2  py     Ryd( 3p)     0.00250       0.86478
  22    N  2  pz     Val( 2p)     1.50531      -0.22901
  23    N  2  pz     Ryd( 3p)     0.00242       0.94388
  24    N  2  dxy    Ryd( 3d)     0.00060       2.44592
  25    N  2  dxz    Ryd( 3d)     0.00086       2.57759
  26    N  2  dyz    Ryd( 3d)     0.00074       2.57811
  27    N  2  dx2y2  Ryd( 3d)     0.00064       2.47310
  28    N  2  dz2    Ryd( 3d)     0.00032       2.29356

  29    C  3  s      Cor( 1s)     1.99889      -9.83473
  30    C  3  s      Val( 2s)     0.81391      -0.11852
  31    C  3  s      Ryd( 3s)     0.00140       0.46603
  32    C  3  px     Val( 2p)     1.06935      -0.07080
  33    C  3  px     Ryd( 3p)     0.00458       0.76507
  34    C  3  py     Val( 2p)     0.92222      -0.08359
  35    C  3  py     Ryd( 3p)     0.00355       0.66483
  36    C  3  pz     Val( 2p)     0.92933      -0.08990
  37    C  3  pz     Ryd( 3p)     0.00297       0.67739
  38    C  3  dxy    Ryd( 3d)     0.00131       2.10652
  39    C  3  dxz    Ryd( 3d)     0.00122       2.09065
  40    C  3  dyz    Ryd( 3d)     0.00088       2.11269
  41    C  3  dx2y2  Ryd( 3d)     0.00097       2.21207
  42    C  3  dz2    Ryd( 3d)     0.00111       1.94929

  43    C  4  s      Cor( 1s)     1.99915      -9.79055
  44    C  4  s      Val( 2s)     1.08703      -0.23202
  45    C  4  s      Ryd( 3s)     0.00071       0.85764
  46    C  4  px     Val( 2p)     1.19764      -0.09075
  47    C  4  px     Ryd( 3p)     0.00200       0.53090
  48    C  4  py     Val( 2p)     1.20400      -0.09045
  49    C  4  py     Ryd( 3p)     0.00121       0.55824
  50    C  4  pz     Val( 2p)     1.19798      -0.09060
  51    C  4  pz     Ryd( 3p)     0.00111       0.55280
  52    C  4  dxy    Ryd( 3d)     0.00071       2.29765
  53    C  4  dxz    Ryd( 3d)     0.00073       2.29407
  54    C  4  dyz    Ryd( 3d)     0.00067       2.31441
  55    C  4  dx2y2  Ryd( 3d)     0.00014       1.98538
  56    C  4  dz2    Ryd( 3d)     0.00019       1.94514

  57    C  5  s      Cor( 1s)     1.99875      -9.77493
  58    C  5  s      Val( 2s)     0.93690      -0.12286
  59    C  5  s      Ryd( 3s)     0.00111       0.47162
  60    C  5  px     Val( 2p)     1.12859      -0.05657
  61    C  5  px     Ryd( 3p)     0.00173       0.66126
  62    C  5  py     Val( 2p)     1.19031      -0.08716
  63    C  5  py     Ryd( 3p)     0.00346       0.68049
  64    C  5  pz     Val( 2p)     1.19169      -0.08601
  65    C  5  pz     Ryd( 3p)     0.00343       0.69404
  66    C  5  dxy    Ryd( 3d)     0.00053       2.14761
  67    C  5  dxz    Ryd( 3d)     0.00054       2.15758
  68    C  5  dyz    Ryd( 3d)     0.00060       2.15472
  69    C  5  dx2y2  Ryd( 3d)     0.00059       2.18709
  70    C  5  dz2    Ryd( 3d)     0.00043       1.95330

  71    C  6  s      Cor( 1s)     1.99923      -9.78241
  72    C  6  s      Val( 2s)     0.81124      -0.07825
  73    C  6  s      Ryd( 3s)     0.00493       0.55607
  74    C  6  px     Val( 2p)     0.95291      -0.04338
  75    C  6  px     Ryd( 3p)     0.00773       0.61106
  76    C  6  py     Val( 2p)     0.97263      -0.01626
  77    C  6  py     Ryd( 3p)     0.00786       0.58252
  78    C  6  pz     Val( 2p)     0.97205      -0.01568
  79    C  6  pz     Ryd( 3p)     0.00805       0.58577
  80    C  6  dxy    Ryd( 3d)     0.00072       2.16426
  81    C  6  dxz    Ryd( 3d)     0.00073       2.17172
  82    C  6  dyz    Ryd( 3d)     0.00072       2.40366
  83    C  6  dx2y2  Ryd( 3d)     0.00099       2.02939
  84    C  6  dz2    Ryd( 3d)     0.00143       2.06304

  85    N  7  s      Cor( 1s)     1.99958     -13.71293
  86    N  7  s      Val( 2s)     1.58153      -0.47579
  87    N  7  s      Ryd( 3s)     0.00776       1.15582
  88    N  7  px     Val( 2p)     1.16874      -0.11691
  89    N  7  px     Ryd( 3p)     0.00064       0.84809
  90    N  7  py     Val( 2p)     1.29626      -0.11975
  91    N  7  py     Ryd( 3p)     0.00136       0.82666
  92    N  7  pz     Val( 2p)     1.29399      -0.11987
  93    N  7  pz     Ryd( 3p)     0.00136       0.82703
  94    N  7  dxy    Ryd( 3d)     0.00175       2.40787
  95    N  7  dxz    Ryd( 3d)     0.00175       2.40789
  96    N  7  dyz    Ryd( 3d)     0.00223       2.53994
  97    N  7  dx2y2  Ryd( 3d)     0.00173       2.28323
  98    N  7  dz2    Ryd( 3d)     0.00205       2.29601

  99    H  8  s      Val( 1s)     0.76965       0.03587
 100    H  8  s      Ryd( 2s)     0.00094       0.28670
 101    H  8  px     Ryd( 2p)     0.00013       1.64553
 102    H  8  py     Ryd( 2p)     0.00063       2.10674
 103    H  8  pz     Ryd( 2p)     0.00033       1.82660

 104    H  9  s      Val( 1s)     0.79056       0.03246
 105    H  9  s      Ryd( 2s)     0.00275       0.31047
 106    H  9  px     Ryd( 2p)     0.00014       1.68239
 107    H  9  py     Ryd( 2p)     0.00057       2.04578
 108    H  9  pz     Ryd( 2p)     0.00037       1.93092

 109    H 10  s      Val( 1s)     0.77627       0.03562
 110    H 10  s      Ryd( 2s)     0.00144       0.33896
 111    H 10  px     Ryd( 2p)     0.00035       1.86665
 112    H 10  py     Ryd( 2p)     0.00017       1.68877
 113    H 10  pz     Ryd( 2p)     0.00057       2.06234

 114    H 11  s      Val( 1s)     0.60211       0.06228
 115    H 11  s      Ryd( 2s)     0.00381       0.36125
 116    H 11  px     Ryd( 2p)     0.00056       2.01551
 117    H 11  py     Ryd( 2p)     0.00071       1.81781
 118    H 11  pz     Ryd( 2p)     0.00077       1.96745

 119    H 12  s      Val( 1s)     0.75505       0.04672
 120    H 12  s      Ryd( 2s)     0.00169       0.34123
 121    H 12  px     Ryd( 2p)     0.00034       1.92760
 122    H 12  py     Ryd( 2p)     0.00034       1.90065
 123    H 12  pz     Ryd( 2p)     0.00039       1.93617

 124    H 13  s      Val( 1s)     0.75649       0.04580
 125    H 13  s      Ryd( 2s)     0.00137       0.34857
 126    H 13  px     Ryd( 2p)     0.00038       1.96339
 127    H 13  py     Ryd( 2p)     0.00038       1.90646
 128    H 13  pz     Ryd( 2p)     0.00031       1.87648

 129    H 14  s      Val( 1s)     0.73466       0.07465
 130    H 14  s      Ryd( 2s)     0.00144       0.36936
 131    H 14  px     Ryd( 2p)     0.00032       1.90693
 132    H 14  py     Ryd( 2p)     0.00037       1.95757
 133    H 14  pz     Ryd( 2p)     0.00036       1.93533

 134    H 15  s      Val( 1s)     0.75526       0.06082
 135    H 15  s      Ryd( 2s)     0.00192       0.31284
 136    H 15  px     Ryd( 2p)     0.00036       2.05538
 137    H 15  py     Ryd( 2p)     0.00039       1.89166
 138    H 15  pz     Ryd( 2p)     0.00041       1.91723

   1 low occupancy (<1.9990e) core orbital  found on  C  3
   1 low occupancy (<1.9990e) core orbital  found on  C  5


 Summary of Natural Population Analysis:

                                     Natural Population
             Natural    ---------------------------------------------
  Atom No    Charge        Core      Valence    Rydberg      Total
 --------------------------------------------------------------------
    C  1   -0.43384      1.99926     4.42486    0.00971     6.43384
    N  2   -0.59556      1.99911     5.58573    0.01071     7.59556
    C  3    0.24832      1.99889     3.73480    0.01799     5.75168
    C  4   -0.69325      1.99915     4.68664    0.00746     6.69325
    C  5   -0.45866      1.99875     4.44749    0.01242     6.45866
    C  6    0.25879      1.99923     3.70884    0.03314     5.74121
    N  7   -0.36074      1.99958     5.34052    0.02063     7.36074
    H  8    0.22832      0.00000     0.76965    0.00203     0.77168
    H  9    0.20561      0.00000     0.79056    0.00383     0.79439
    H 10    0.22120      0.00000     0.77627    0.00253     0.77880
    H 11    0.39204      0.00000     0.60211    0.00586     0.60796
    H 12    0.24219      0.00000     0.75505    0.00276     0.75781
    H 13    0.24108      0.00000     0.75649    0.00243     0.75892
    H 14    0.26284      0.00000     0.73466    0.00250     0.73716
    H 15    0.24166      0.00000     0.75526    0.00308     0.75834
 ====================================================================
 * Total *  0.00000     13.99397    37.86894    0.13709    52.00000

                                 Natural Population
 ---------------------------------------------------------
   Core                      13.99397 ( 99.9569% of   14)
   Valence                   37.86894 ( 99.6551% of   38)
   Natural Minimal Basis     51.86291 ( 99.7364% of   52)
   Natural Rydberg Basis      0.13709 (  0.2636% of   52)
 ---------------------------------------------------------

    Atom No         Natural Electron Configuration
 ----------------------------------------------------------------------------
      C  1      [core]2s( 1.07)2p( 3.35)3p( 0.01)
      N  2      [core]2s( 1.22)2p( 4.36)3p( 0.01)
      C  3      [core]2s( 0.81)2p( 2.92)3p( 0.01)3d( 0.01)
      C  4      [core]2s( 1.09)2p( 3.60)
      C  5      [core]2s( 0.94)2p( 3.51)3p( 0.01)
      C  6      [core]2s( 0.81)2p( 2.90)3p( 0.02)
      N  7      [core]2s( 1.58)2p( 3.76)3s( 0.01)3d( 0.01)
      H  8            1s( 0.77)
      H  9            1s( 0.79)
      H 10            1s( 0.78)
      H 11            1s( 0.60)
      H 12            1s( 0.76)
      H 13            1s( 0.76)
      H 14            1s( 0.73)
      H 15            1s( 0.76)


 NATURAL BOND ORBITAL ANALYSIS:

                            Occupancies       Lewis Structure    Low   High
         Max    Occ     -------------------  -----------------   occ   occ
  Cycle  Ctr   Thresh    Lewis   non-Lewis     CR  BD  nC  LP    (L)   (NL)
 ============================================================================
    1     2     1.90    50.81338   1.18662      7  17   0   2     1      2
    2     2     1.87    50.81338   1.18662      7  17   0   2     1      2
    3     2     1.86    50.81338   1.18662      7  17   0   2     1      2
    4     2     1.77    51.19411   0.80589      7  17   0   2     1      2
    5     2     1.71    51.20073   0.79927      7  17   0   2     0      2
    6     2     1.52    51.20073   0.79927      7  17   0   2     0      2
    7     2     1.71    51.20073   0.79927      7  17   0   2     0      2
 ----------------------------------------------------------------------------

 Structure accepted: No low occupancy Lewis orbitals

 -------------------------------------------------------
   Core                     13.99397 ( 99.957% of  14)
   Valence Lewis            37.20675 ( 97.913% of  38)
  ==================      =============================
   Total Lewis              51.20073 ( 98.463% of  52)
  -----------------------------------------------------
   Valence non-Lewis         0.71181 (  1.369% of  52)
   Rydberg non-Lewis         0.08746 (  0.168% of  52)
  ==================      =============================
   Total non-Lewis           0.79927 (  1.537% of  52)
 -------------------------------------------------------


     (Occupancy)   Bond orbital / Coefficients / Hybrids
 ------------------ Lewis ------------------------------------------------------
   1. (1.99926) CR ( 1) C  1            s(100.00%)
                                         1.0000  0.0000  0.0000  0.0000  0.0000
                                         0.0000  0.0000  0.0000  0.0000  0.0000
                                         0.0000  0.0000  0.0000  0.0000
   2. (1.99911) CR ( 1) N  2            s(100.00%)
                                         1.0000  0.0000  0.0000  0.0000  0.0000
                                         0.0000  0.0000  0.0000  0.0000  0.0000
                                         0.0000  0.0000  0.0000  0.0000
   3. (1.99889) CR ( 1) C  3            s(100.00%)
                                         1.0000  0.0000  0.0000  0.0000  0.0000
                                         0.0000  0.0000  0.0000  0.0000  0.0000
                                         0.0000  0.0000  0.0000  0.0000
   4. (1.99915) CR ( 1) C  4            s(100.00%)
                                         1.0000  0.0000  0.0000  0.0000  0.0000
                                         0.0000  0.0000  0.0000  0.0000  0.0000
                                         0.0000  0.0000  0.0000  0.0000
   5. (1.99875) CR ( 1) C  5            s(100.00%)
                                         1.0000  0.0000  0.0000  0.0000  0.0000
                                         0.0000  0.0000  0.0000  0.0000  0.0000
                                         0.0000  0.0000  0.0000  0.0000
   6. (1.99923) CR ( 1) C  6            s(100.00%)
                                         1.0000  0.0000  0.0000  0.0000  0.0000
                                         0.0000  0.0000  0.0000  0.0000  0.0000
                                         0.0000  0.0000  0.0000  0.0000
   7. (1.99958) CR ( 1) N  7            s(100.00%)
                                         1.0000  0.0000  0.0000  0.0000  0.0000
                                         0.0000  0.0000  0.0000  0.0000  0.0000
                                         0.0000  0.0000  0.0000  0.0000
   8. (1.71045) LP ( 1) N  2            s(  2.54%)p38.35( 97.45%)d 0.01(  0.01%)
                                         0.0000  0.1594 -0.0013 -0.0649 -0.0027
                                         0.7482  0.0126 -0.6404 -0.0122  0.0022
                                        -0.0018  0.0073  0.0076  0.0037
   9. (1.96972) LP ( 1) N  7            s( 51.76%)p 0.93( 48.18%)d 0.00(  0.05%)
                                         0.0000  0.7186 -0.0347  0.3272  0.0124
                                        -0.4320 -0.0173 -0.4329 -0.0173  0.0120
                                         0.0121 -0.0152  0.0036 -0.0021
  10. (1.99006) BD ( 1) C  1- N  2
               ( 37.85%)   0.6152* C  1 s( 24.95%)p 3.00( 74.92%)d 0.01(  0.13%)
                                         0.0000  0.4992  0.0164  0.8368  0.0346
                                        -0.0161  0.0192 -0.2170  0.0020  0.0003
                                        -0.0146  0.0011  0.0292 -0.0148
               ( 62.15%)   0.7884* N  2 s( 33.52%)p 1.98( 66.44%)d 0.00(  0.04%)
                                         0.0000  0.5790  0.0047 -0.7849  0.0016
                                        -0.0043 -0.0145  0.2188 -0.0153  0.0058
                                        -0.0094  0.0038  0.0143 -0.0065
  11. (1.98775) BD ( 1) C  1- H  8
               ( 61.41%)   0.7837* C  1 s( 24.37%)p 3.10( 75.59%)d 0.00(  0.04%)
                                         0.0000  0.4936  0.0058 -0.1674 -0.0043
                                         0.7351 -0.0115  0.4327 -0.0075 -0.0037
                                        -0.0008  0.0147 -0.0136 -0.0029
               ( 38.59%)   0.6212* H  8 s( 99.90%)p 0.00(  0.10%)
                                         0.9995 -0.0006  0.0097 -0.0262 -0.0151
  12. (1.99107) BD ( 1) C  1- H  9
               ( 60.99%)   0.7810* C  1 s( 25.40%)p 2.93( 74.56%)d 0.00(  0.04%)
                                         0.0000  0.5040 -0.0081 -0.1821 -0.0115
                                        -0.6765  0.0104  0.5045  0.0040  0.0053
                                        -0.0038 -0.0151 -0.0102  0.0010
               ( 39.01%)   0.6246* H  9 s( 99.90%)p 0.00(  0.10%)
                                         0.9995 -0.0065  0.0085  0.0236 -0.0181
  13. (1.98811) BD ( 1) C  1- H 10
               ( 61.30%)   0.7829* C  1 s( 25.28%)p 2.95( 74.68%)d 0.00(  0.04%)
                                         0.0000  0.5028 -0.0067 -0.4852 -0.0096
                                        -0.0272  0.0100 -0.7143  0.0133 -0.0004
                                         0.0151  0.0010  0.0038  0.0117
               ( 38.70%)   0.6221* H 10 s( 99.90%)p 0.00(  0.10%)
                                         0.9995 -0.0022  0.0204 -0.0005  0.0240
  14. (1.98450) BD ( 1) N  2- C  3
               ( 61.74%)   0.7857* N  2 s( 39.30%)p 1.54( 60.65%)d 0.00(  0.05%)
                                         0.0000  0.6269  0.0026  0.3315 -0.0118
                                        -0.5158 -0.0004 -0.4800  0.0015 -0.0094
                                        -0.0071  0.0184 -0.0037 -0.0039
               ( 38.26%)   0.6186* C  3 s( 29.01%)p 2.44( 70.87%)d 0.00(  0.12%)
                                         0.0000  0.5384  0.0152 -0.3607 -0.0065
                                         0.5541  0.0246  0.5203  0.0151 -0.0156
                                        -0.0143  0.0267 -0.0048  0.0007
  15. (1.98271) BD ( 1) N  2- H 11
               ( 70.31%)   0.8385* N  2 s( 24.55%)p 3.07( 75.41%)d 0.00(  0.04%)
                                         0.0000  0.4954 -0.0056  0.5189 -0.0029
                                         0.4167 -0.0130  0.5576 -0.0073  0.0069
                                         0.0150  0.0100  0.0068  0.0044
               ( 29.69%)   0.5449* H 11 s( 99.80%)p 0.00(  0.20%)
                                         0.9990 -0.0078 -0.0274 -0.0242 -0.0263
  16. (1.97343) BD ( 1) C  3- C  4
               ( 50.52%)   0.7108* C  3 s( 32.47%)p 2.08( 67.50%)d 0.00(  0.03%)
                                         0.0000  0.5696 -0.0146 -0.5079  0.0095
                                        -0.4448  0.0100 -0.4679  0.0081  0.0093
                                         0.0098  0.0105  0.0051 -0.0022
               ( 49.48%)   0.7034* C  4 s( 29.69%)p 2.37( 70.27%)d 0.00(  0.04%)
                                         0.0000  0.5449 -0.0006  0.5009  0.0083
                                         0.4636 -0.0015  0.4866 -0.0011  0.0119
                                         0.0124  0.0123 -0.0004  0.0010
  17. (1.96551) BD ( 1) C  3- C  5
               ( 50.73%)   0.7123* C  3 s( 38.38%)p 1.60( 61.59%)d 0.00(  0.04%)
                                         0.0000  0.6195  0.0050  0.7808 -0.0020
                                        -0.0723  0.0129 -0.0240  0.0143 -0.0003
                                         0.0016  0.0036  0.0165 -0.0097
               ( 49.27%)   0.7019* C  5 s( 39.09%)p 1.56( 60.86%)d 0.00(  0.05%)
                                         0.0000  0.6251  0.0102 -0.7760 -0.0070
                                         0.0644  0.0079  0.0455  0.0070 -0.0025
                                        -0.0002  0.0064  0.0185 -0.0106
  18. (1.86292) BD ( 2) C  3- C  5
               ( 40.87%)   0.6393* C  3 s(  0.01%)p 1.00( 99.91%)d 0.00(  0.08%)
                                         0.0000 -0.0013  0.0083  0.0436 -0.0041
                                         0.6988 -0.0017 -0.7133  0.0093  0.0206
                                        -0.0193  0.0010  0.0026  0.0009
               ( 59.13%)   0.7689* C  5 s(  0.00%)p 1.00( 99.96%)d 0.00(  0.04%)
                                         0.0000  0.0026  0.0021  0.0208 -0.0008
                                         0.7168 -0.0094 -0.6966  0.0069 -0.0120
                                         0.0115 -0.0010  0.0036  0.0078
  19. (1.97104) BD ( 1) C  4- H 12
               ( 61.96%)   0.7872* C  4 s( 22.80%)p 3.38( 77.16%)d 0.00(  0.04%)
                                         0.0000  0.4775 -0.0018 -0.4965 -0.0009
                                         0.5127 -0.0121 -0.5118 -0.0147 -0.0117
                                         0.0097 -0.0120 -0.0029 -0.0029
               ( 38.04%)   0.6168* H 12 s( 99.91%)p 0.00(  0.09%)
                                         0.9995 -0.0019  0.0163 -0.0160  0.0197
  20. (1.97171) BD ( 1) C  4- H 13
               ( 61.89%)   0.7867* C  4 s( 22.85%)p 3.37( 77.11%)d 0.00(  0.04%)
                                         0.0000  0.4780 -0.0013 -0.5445 -0.0017
                                        -0.4856 -0.0143  0.4882 -0.0126  0.0100
                                        -0.0126 -0.0109  0.0027  0.0031
               ( 38.11%)   0.6173* H 13 s( 99.91%)p 0.00(  0.09%)
                                         0.9995 -0.0014  0.0181  0.0192 -0.0145
  21. (1.98140) BD ( 1) C  4- H 14
               ( 63.10%)   0.7944* C  4 s( 24.62%)p 3.06( 75.34%)d 0.00(  0.04%)
                                         0.0000  0.4962  0.0045  0.4530 -0.0173
                                        -0.5345  0.0000 -0.5121 -0.0006 -0.0112
                                        -0.0106  0.0109  0.0002 -0.0008
               ( 36.90%)   0.6074* H 14 s( 99.90%)p 0.00(  0.10%)
                                         0.9995 -0.0011 -0.0155  0.0193  0.0187
  22. (1.97977) BD ( 1) C  5- C  6
               ( 51.00%)   0.7141* C  5 s( 32.57%)p 2.07( 67.38%)d 0.00(  0.06%)
                                         0.0000  0.5706  0.0061  0.3873  0.0265
                                        -0.5109  0.0041 -0.5119  0.0051 -0.0095
                                        -0.0094  0.0193 -0.0019  0.0018
               ( 49.00%)   0.7000* C  6 s( 53.26%)p 0.88( 46.70%)d 0.00(  0.03%)
                                         0.0000  0.7291  0.0311 -0.3177  0.0204
                                         0.4257 -0.0021  0.4295 -0.0009 -0.0089
                                        -0.0089  0.0134 -0.0020  0.0014
  23. (1.95801) BD ( 1) C  5- H 15
               ( 62.05%)   0.7877* C  5 s( 28.27%)p 2.54( 71.71%)d 0.00(  0.03%)
                                         0.0000  0.5315 -0.0129  0.4962  0.0168
                                         0.4696 -0.0052  0.5000 -0.0048  0.0075
                                         0.0082  0.0107  0.0034 -0.0015
               ( 37.95%)   0.6161* H 15 s( 99.91%)p 0.00(  0.09%)
                                         0.9995 -0.0031 -0.0188 -0.0163 -0.0175
  24. (1.99428) BD ( 1) C  6- N  7
               ( 41.50%)   0.6442* C  6 s( 46.61%)p 1.14( 53.32%)d 0.00(  0.07%)
                                         0.0000  0.6817 -0.0366  0.3444  0.0297
                                        -0.4515 -0.0361 -0.4553 -0.0360 -0.0132
                                        -0.0132  0.0183 -0.0032  0.0019
               ( 58.50%)   0.7649* N  7 s( 48.57%)p 1.05( 51.19%)d 0.00(  0.24%)
                                         0.0000  0.6941  0.0628 -0.3441  0.0097
                                         0.4446 -0.0133  0.4420 -0.0133 -0.0252
                                        -0.0251  0.0331 -0.0062  0.0036
  25. (1.97945) BD ( 2) C  6- N  7
               ( 46.89%)   0.6847* C  6 s(  0.02%)p99.99( 99.87%)d 5.89(  0.11%)
                                         0.0000  0.0041  0.0129 -0.8806  0.0249
                                        -0.2938  0.0073 -0.3692  0.0086  0.0137
                                         0.0124  0.0139 -0.0194  0.0130
               ( 53.11%)   0.7288* N  7 s(  0.00%)p 1.00( 99.74%)d 0.00(  0.26%)
                                         0.0000 -0.0053 -0.0031 -0.8767  0.0125
                                        -0.2984  0.0054 -0.3735  0.0065 -0.0201
                                        -0.0183 -0.0214  0.0311 -0.0207
  26. (1.96485) BD ( 3) C  6- N  7
               ( 44.59%)   0.6677* C  6 s(  0.00%)p 1.00( 99.88%)d 0.00(  0.12%)
                                         0.0000  0.0002  0.0002 -0.0453  0.0009
                                        -0.7257  0.0051  0.6856 -0.0044 -0.0112
                                         0.0125  0.0008 -0.0164 -0.0257
               ( 55.41%)   0.7444* N  7 s(  0.00%)p 1.00( 99.75%)d 0.00(  0.25%)
                                         0.0000  0.0014  0.0001 -0.0472  0.0006
                                        -0.7225  0.0079  0.6878 -0.0075  0.0160
                                        -0.0181 -0.0011  0.0237  0.0372
 ---------------- non-Lewis ----------------------------------------------------
  27. (0.01020) BD*( 1) C  1- N  2
               ( 62.15%)   0.7884* C  1 s( 24.95%)p 3.00( 74.92%)d 0.01(  0.13%)
                                         0.0000  0.4992  0.0164  0.8368  0.0346
                                        -0.0161  0.0192 -0.2170  0.0020  0.0003
                                        -0.0146  0.0011  0.0292 -0.0148
               ( 37.85%)  -0.6152* N  2 s( 33.52%)p 1.98( 66.44%)d 0.00(  0.04%)
                                         0.0000  0.5790  0.0047 -0.7849  0.0016
                                        -0.0043 -0.0145  0.2188 -0.0153  0.0058
                                        -0.0094  0.0038  0.0143 -0.0065
  28. (0.00553) BD*( 1) C  1- H  8
               ( 38.59%)   0.6212* C  1 s( 24.37%)p 3.10( 75.59%)d 0.00(  0.04%)
                                         0.0000 -0.4936 -0.0058  0.1674  0.0043
                                        -0.7351  0.0115 -0.4327  0.0075  0.0037
                                         0.0008 -0.0147  0.0136  0.0029
               ( 61.41%)  -0.7837* H  8 s( 99.90%)p 0.00(  0.10%)
                                        -0.9995  0.0006 -0.0097  0.0262  0.0151
  29. (0.02385) BD*( 1) C  1- H  9
               ( 39.01%)   0.6246* C  1 s( 25.40%)p 2.93( 74.56%)d 0.00(  0.04%)
                                         0.0000 -0.5040  0.0081  0.1821  0.0115
                                         0.6765 -0.0104 -0.5045 -0.0040 -0.0053
                                         0.0038  0.0151  0.0102 -0.0010
               ( 60.99%)  -0.7810* H  9 s( 99.90%)p 0.00(  0.10%)
                                        -0.9995  0.0065 -0.0085 -0.0236  0.0181
  30. (0.01243) BD*( 1) C  1- H 10
               ( 38.70%)   0.6221* C  1 s( 25.28%)p 2.95( 74.68%)d 0.00(  0.04%)
                                         0.0000 -0.5028  0.0067  0.4852  0.0096
                                         0.0272 -0.0100  0.7143 -0.0133  0.0004
                                        -0.0151 -0.0010 -0.0038 -0.0117
               ( 61.30%)  -0.7829* H 10 s( 99.90%)p 0.00(  0.10%)
                                        -0.9995  0.0022 -0.0204  0.0005 -0.0240
  31. (0.03289) BD*( 1) N  2- C  3
               ( 38.26%)   0.6186* N  2 s( 39.30%)p 1.54( 60.65%)d 0.00(  0.05%)
                                         0.0000 -0.6269 -0.0026 -0.3315  0.0118
                                         0.5158  0.0004  0.4800 -0.0015  0.0094
                                         0.0071 -0.0184  0.0037  0.0039
               ( 61.74%)  -0.7857* C  3 s( 29.01%)p 2.44( 70.87%)d 0.00(  0.12%)
                                         0.0000 -0.5384 -0.0152  0.3607  0.0065
                                        -0.5541 -0.0246 -0.5203 -0.0151  0.0156
                                         0.0143 -0.0267  0.0048 -0.0007
  32. (0.02081) BD*( 1) N  2- H 11
               ( 29.69%)   0.5449* N  2 s( 24.55%)p 3.07( 75.41%)d 0.00(  0.04%)
                                         0.0000 -0.4954  0.0056 -0.5189  0.0029
                                        -0.4167  0.0130 -0.5576  0.0073 -0.0069
                                        -0.0150 -0.0100 -0.0068 -0.0044
               ( 70.31%)  -0.8385* H 11 s( 99.80%)p 0.00(  0.20%)
                                        -0.9990  0.0078  0.0274  0.0242  0.0263
  33. (0.02299) BD*( 1) C  3- C  4
               ( 49.48%)   0.7034* C  3 s( 32.47%)p 2.08( 67.50%)d 0.00(  0.03%)
                                         0.0000  0.5696 -0.0146 -0.5079  0.0095
                                        -0.4448  0.0100 -0.4679  0.0081  0.0093
                                         0.0098  0.0105  0.0051 -0.0022
               ( 50.52%)  -0.7108* C  4 s( 29.69%)p 2.37( 70.27%)d 0.00(  0.04%)
                                         0.0000  0.5449 -0.0006  0.5009  0.0083
                                         0.4636 -0.0015  0.4866 -0.0011  0.0119
                                         0.0124  0.0123 -0.0004  0.0010
  34. (0.02635) BD*( 1) C  3- C  5
               ( 49.27%)   0.7019* C  3 s( 38.38%)p 1.60( 61.59%)d 0.00(  0.04%)
                                         0.0000 -0.6195 -0.0050 -0.7808  0.0020
                                         0.0723 -0.0129  0.0240 -0.0143  0.0003
                                        -0.0016 -0.0036 -0.0165  0.0097
               ( 50.73%)  -0.7123* C  5 s( 39.09%)p 1.56( 60.86%)d 0.00(  0.05%)
                                         0.0000 -0.6251 -0.0102  0.7760  0.0070
                                        -0.0644 -0.0079 -0.0455 -0.0070  0.0025
                                         0.0002 -0.0064 -0.0185  0.0106
  35. (0.30091) BD*( 2) C  3- C  5
               ( 59.13%)   0.7689* C  3 s(  0.01%)p 1.00( 99.91%)d 0.00(  0.08%)
                                         0.0000 -0.0013  0.0083  0.0436 -0.0041
                                         0.6988 -0.0017 -0.7133  0.0093  0.0206
                                        -0.0193  0.0010  0.0026  0.0009
               ( 40.87%)  -0.6393* C  5 s(  0.00%)p 1.00( 99.96%)d 0.00(  0.04%)
                                         0.0000  0.0026  0.0021  0.0208 -0.0008
                                         0.7168 -0.0094 -0.6966  0.0069 -0.0120
                                         0.0115 -0.0010  0.0036  0.0078
  36. (0.00968) BD*( 1) C  4- H 12
               ( 38.04%)   0.6168* C  4 s( 22.80%)p 3.38( 77.16%)d 0.00(  0.04%)
                                         0.0000 -0.4775  0.0018  0.4965  0.0009
                                        -0.5127  0.0121  0.5118  0.0147  0.0117
                                        -0.0097  0.0120  0.0029  0.0029
               ( 61.96%)  -0.7872* H 12 s( 99.91%)p 0.00(  0.09%)
                                        -0.9995  0.0019 -0.0163  0.0160 -0.0197
  37. (0.00938) BD*( 1) C  4- H 13
               ( 38.11%)   0.6173* C  4 s( 22.85%)p 3.37( 77.11%)d 0.00(  0.04%)
                                         0.0000 -0.4780  0.0013  0.5445  0.0017
                                         0.4856  0.0143 -0.4882  0.0126 -0.0100
                                         0.0126  0.0109 -0.0027 -0.0031
               ( 61.89%)  -0.7867* H 13 s( 99.91%)p 0.00(  0.09%)
                                        -0.9995  0.0014 -0.0181 -0.0192  0.0145
  38. (0.00680) BD*( 1) C  4- H 14
               ( 36.90%)   0.6074* C  4 s( 24.62%)p 3.06( 75.34%)d 0.00(  0.04%)
                                         0.0000 -0.4962 -0.0045 -0.4530  0.0173
                                         0.5345  0.0000  0.5121  0.0006  0.0112
                                         0.0106 -0.0109 -0.0002  0.0008
               ( 63.10%)  -0.7944* H 14 s( 99.90%)p 0.00(  0.10%)
                                        -0.9995  0.0011  0.0155 -0.0193 -0.0187
  39. (0.02534) BD*( 1) C  5- C  6
               ( 49.00%)   0.7000* C  5 s( 32.57%)p 2.07( 67.38%)d 0.00(  0.06%)
                                         0.0000 -0.5706 -0.0061 -0.3873 -0.0265
                                         0.5109 -0.0041  0.5119 -0.0051  0.0095
                                         0.0094 -0.0193  0.0019 -0.0018
               ( 51.00%)  -0.7141* C  6 s( 53.26%)p 0.88( 46.70%)d 0.00(  0.03%)
                                         0.0000 -0.7291 -0.0311  0.3177 -0.0204
                                        -0.4257  0.0021 -0.4295  0.0009  0.0089
                                         0.0089 -0.0134  0.0020 -0.0014
  40. (0.02072) BD*( 1) C  5- H 15
               ( 37.95%)   0.6161* C  5 s( 28.27%)p 2.54( 71.71%)d 0.00(  0.03%)
                                         0.0000 -0.5315  0.0129 -0.4962 -0.0168
                                        -0.4696  0.0052 -0.5000  0.0048 -0.0075
                                        -0.0082 -0.0107 -0.0034  0.0015
               ( 62.05%)  -0.7877* H 15 s( 99.91%)p 0.00(  0.09%)
                                        -0.9995  0.0031  0.0188  0.0163  0.0175
  41. (0.01087) BD*( 1) C  6- N  7
               ( 58.50%)   0.7649* C  6 s( 46.61%)p 1.14( 53.32%)d 0.00(  0.07%)
                                         0.0000  0.6817 -0.0366  0.3444  0.0297
                                        -0.4515 -0.0361 -0.4553 -0.0360 -0.0132
                                        -0.0132  0.0183 -0.0032  0.0019
               ( 41.50%)  -0.6442* N  7 s( 48.57%)p 1.05( 51.19%)d 0.00(  0.24%)
                                         0.0000  0.6941  0.0628 -0.3441  0.0097
                                         0.4446 -0.0133  0.4420 -0.0133 -0.0252
                                        -0.0251  0.0331 -0.0062  0.0036
  42. (0.02696) BD*( 2) C  6- N  7
               ( 53.11%)   0.7288* C  6 s(  0.02%)p99.99( 99.87%)d 5.89(  0.11%)
                                         0.0000  0.0041  0.0129 -0.8806  0.0249
                                        -0.2938  0.0073 -0.3692  0.0086  0.0137
                                         0.0124  0.0139 -0.0194  0.0130
               ( 46.89%)  -0.6847* N  7 s(  0.00%)p 1.00( 99.74%)d 0.00(  0.26%)
                                         0.0000 -0.0053 -0.0031 -0.8767  0.0125
                                        -0.2984  0.0054 -0.3735  0.0065 -0.0201
                                        -0.0183 -0.0214  0.0311 -0.0207
  43. (0.14610) BD*( 3) C  6- N  7
               ( 55.41%)   0.7444* C  6 s(  0.00%)p 1.00( 99.88%)d 0.00(  0.12%)
                                         0.0000 -0.0002 -0.0002  0.0453 -0.0009
                                         0.7257 -0.0051 -0.6856  0.0044  0.0112
                                        -0.0125 -0.0008  0.0164  0.0257
               ( 44.59%)  -0.6677* N  7 s(  0.00%)p 1.00( 99.75%)d 0.00(  0.25%)
                                         0.0000 -0.0014 -0.0001  0.0472 -0.0006
                                         0.7225 -0.0079 -0.6878  0.0075 -0.0160
                                         0.0181  0.0011 -0.0237 -0.0372
  44. (0.00237) RY ( 1) C  1            s(  8.37%)p 9.24( 77.38%)d 1.70( 14.24%)
                                         0.0000  0.0119  0.2891 -0.0026  0.1393
                                        -0.0246 -0.7607 -0.0117 -0.4184 -0.3462
                                        -0.0048  0.1465 -0.0334  0.0017
  45. (0.00151) RY ( 2) C  1            s(  0.02%)p99.99( 42.29%)d99.99( 57.69%)
                                         0.0000  0.0023  0.0144 -0.0021 -0.1364
                                         0.0039  0.1277 -0.0153 -0.6227  0.3893
                                        -0.5764 -0.1532 -0.1608  0.2091
  46. (0.00066) RY ( 3) C  1            s( 20.69%)p 3.65( 75.52%)d 0.18(  3.80%)
                                         0.0000 -0.0097  0.4547 -0.0442  0.7868
                                        -0.0024  0.3362  0.0114 -0.1447  0.1114
                                         0.0769 -0.0192  0.1188 -0.0719
  47. (0.00031) RY ( 4) C  1            s( 27.94%)p 0.94( 26.36%)d 1.64( 45.70%)
                                         0.0000  0.0019  0.5286  0.0072 -0.1953
                                        -0.0005 -0.3365 -0.0029  0.3349  0.6504
                                         0.1149 -0.1245 -0.0725 -0.0025
  48. (0.00019) RY ( 5) C  1            s(  6.95%)p 7.50( 52.10%)d 5.90( 40.96%)
                                         0.0000  0.0003  0.2636  0.0154 -0.4384
                                        -0.0043  0.3147  0.0011 -0.4790 -0.0122
                                         0.6154  0.1598  0.0245 -0.0673
  49. (0.00001) RY ( 6) C  1            s(  4.09%)p 1.39(  5.69%)d22.08( 90.23%)
  50. (0.00001) RY ( 7) C  1            s( 10.99%)p 0.89(  9.80%)d 7.21( 79.21%)
  51. (0.00000) RY ( 8) C  1            s( 18.20%)p 0.52(  9.53%)d 3.97( 72.27%)
  52. (0.00000) RY ( 9) C  1            s(  2.74%)p 0.59(  1.61%)d34.96( 95.66%)
  53. (0.00340) RY ( 1) N  2            s(  2.52%)p37.55( 94.79%)d 1.07(  2.69%)
                                         0.0000  0.0017  0.1589 -0.0031  0.3089
                                         0.0097 -0.6088 -0.0127  0.6939 -0.0210
                                         0.0723  0.0937  0.0686  0.0879
  54. (0.00236) RY ( 2) N  2            s( 13.20%)p 5.38( 70.97%)d 1.20( 15.83%)
                                         0.0000 -0.0149  0.3630  0.0043 -0.7353
                                         0.0068 -0.3998  0.0015 -0.0953 -0.2373
                                        -0.2368 -0.0465  0.2009 -0.0583
  55. (0.00054) RY ( 3) N  2            s( 31.99%)p 0.46( 14.69%)d 1.67( 53.32%)
                                         0.0000  0.0002  0.5656  0.0057  0.3239
                                         0.0064  0.1578  0.0121 -0.1299 -0.1860
                                        -0.5221  0.2414 -0.2760  0.3025
  56. (0.00044) RY ( 4) N  2            s(  1.50%)p 1.36(  2.04%)d64.26( 96.46%)
                                         0.0000 -0.0009  0.1225 -0.0071  0.1148
                                         0.0079 -0.0030  0.0032 -0.0840 -0.6829
                                         0.4140  0.1804 -0.2620 -0.4750
  57. (0.00031) RY ( 5) N  2            s( 10.77%)p 7.77( 83.64%)d 0.52(  5.59%)
                                         0.0000  0.0129  0.3279 -0.0114 -0.3574
                                         0.0063  0.5939  0.0119  0.5964  0.1013
                                         0.1838  0.0419 -0.0968 -0.0267
  58. (0.00012) RY ( 6) N  2            s( 37.12%)p 0.38( 14.01%)d 1.32( 48.87%)
                                         0.0000 -0.0032  0.6093  0.0119  0.2655
                                        -0.0098  0.0001 -0.0092 -0.2632  0.3474
                                         0.3153 -0.1859  0.4113 -0.2546
  59. (0.00003) RY ( 7) N  2            s(  1.78%)p 9.04( 16.09%)d46.13( 82.13%)
  60. (0.00002) RY ( 8) N  2            s(  0.86%)p 0.46(  0.40%)d99.99( 98.74%)
  61. (0.00001) RY ( 9) N  2            s(  0.34%)p10.05(  3.44%)d99.99( 96.22%)
  62. (0.00559) RY ( 1) C  3            s(  2.04%)p44.83( 91.23%)d 3.31(  6.73%)
                                         0.0000  0.0186  0.1414 -0.0081 -0.7790
                                        -0.0071 -0.4530 -0.0029 -0.3165 -0.1101
                                        -0.1643 -0.0822  0.1317 -0.0643
  63. (0.00367) RY ( 2) C  3            s(  0.99%)p82.87( 82.18%)d16.97( 16.83%)
                                         0.0000 -0.0251  0.0964 -0.0053 -0.4703
                                        -0.0193  0.4429  0.0045  0.6356  0.2734
                                        -0.1400 -0.0666  0.2367  0.1163
  64. (0.00254) RY ( 3) C  3            s(  2.81%)p14.79( 41.60%)d19.76( 55.58%)
                                         0.0000  0.0094  0.1675 -0.0002  0.2801
                                        -0.0133 -0.5493  0.0181  0.1881  0.4687
                                        -0.4670  0.1334  0.0799  0.3063
  65. (0.00151) RY ( 4) C  3            s(  3.83%)p12.10( 46.29%)d13.04( 49.89%)
                                         0.0000 -0.0017  0.1956  0.0042  0.0177
                                        -0.0067  0.4187 -0.0066 -0.5358 -0.0032
                                        -0.1373  0.1260  0.2588  0.6302
  66. (0.00098) RY ( 5) C  3            s( 64.93%)p 0.05(  3.56%)d 0.49( 31.51%)
                                         0.0000 -0.0131  0.8057  0.0014  0.0600
                                        -0.0240  0.0629 -0.0209  0.1644 -0.3821
                                        -0.1197  0.2625 -0.2647 -0.1261
  67. (0.00051) RY ( 6) C  3            s( 20.85%)p 0.24(  4.91%)d 3.56( 74.25%)
                                         0.0000  0.0047  0.4566 -0.0153  0.1841
                                         0.0124 -0.0976  0.0104 -0.0719  0.2392
                                         0.4653 -0.3481  0.5551 -0.1986
  68. (0.00034) RY ( 7) C  3            s(  0.67%)p10.95(  7.36%)d99.99( 91.97%)
                                         0.0000  0.0017  0.0820  0.0081 -0.2292
                                         0.0066 -0.1408  0.0014  0.0337  0.3299
                                         0.6603  0.3950 -0.3479  0.3126
  69. (0.00020) RY ( 8) C  3            s(  1.09%)p20.76( 22.69%)d69.73( 76.22%)
                                         0.0000 -0.0029  0.1045  0.0014 -0.0530
                                        -0.0088  0.2937  0.0095 -0.3710  0.6058
                                        -0.2191  0.1488 -0.2346 -0.5196
  70. (0.00001) RY ( 9) C  3            s(  2.93%)p 0.11(  0.32%)d33.02( 96.75%)
  71. (0.00207) RY ( 1) C  4            s(  5.33%)p16.50( 88.02%)d 1.25(  6.64%)
                                         0.0000 -0.0027  0.2310  0.0104  0.8588
                                        -0.0128 -0.2873 -0.0121 -0.2445  0.0793
                                         0.0763 -0.1098  0.1770 -0.1045
  72. (0.00107) RY ( 2) C  4            s( 37.34%)p 1.45( 54.27%)d 0.22(  8.39%)
                                         0.0000  0.0120  0.6109 -0.0137  0.1248
                                         0.0037  0.7118 -0.0011  0.1427  0.1207
                                        -0.1795  0.0519 -0.0894 -0.1626
  73. (0.00092) RY ( 3) C  4            s( 11.89%)p 4.97( 59.03%)d 2.45( 29.08%)
                                         0.0000  0.0070  0.3447 -0.0086  0.0474
                                        -0.0027 -0.2412  0.0039  0.7278 -0.3009
                                         0.2526  0.0233  0.1688  0.3278
  74. (0.00013) RY ( 4) C  4            s( 37.66%)p 1.30( 48.96%)d 0.36( 13.38%)
                                         0.0000 -0.0129  0.6136  0.0101 -0.4363
                                         0.0098 -0.3610  0.0127 -0.4105 -0.2446
                                        -0.1086 -0.0967  0.1681 -0.1567
  75. (0.00003) RY ( 5) C  4            s(  0.10%)p97.34(  9.50%)d99.99( 90.40%)
  76. (0.00002) RY ( 6) C  4            s(  5.46%)p 1.19(  6.53%)d16.11( 88.01%)
  77. (0.00001) RY ( 7) C  4            s(  0.88%)p14.07( 12.36%)d98.79( 86.77%)
  78. (0.00001) RY ( 8) C  4            s(  0.72%)p12.34(  8.94%)d99.99( 90.33%)
  79. (0.00000) RY ( 9) C  4            s(  0.65%)p19.19( 12.52%)d99.99( 86.83%)
  80. (0.00461) RY ( 1) C  5            s(  0.53%)p99.99( 95.47%)d 7.48(  4.00%)
                                         0.0000 -0.0060  0.0729  0.0116 -0.0461
                                         0.0094  0.6757  0.0081  0.7040 -0.1373
                                        -0.1438 -0.0177  0.0079 -0.0084
  81. (0.00209) RY ( 2) C  5            s(  0.84%)p99.99( 97.80%)d 1.62(  1.36%)
                                         0.0000  0.0002  0.0916  0.0009 -0.0399
                                        -0.0074 -0.7214  0.0088  0.6752 -0.0395
                                         0.0150  0.0084 -0.0426 -0.0996
  82. (0.00094) RY ( 3) C  5            s( 55.37%)p 0.50( 27.95%)d 0.30( 16.69%)
                                         0.0000 -0.0143  0.7440  0.0022  0.5200
                                         0.0093 -0.0174  0.0099 -0.0927 -0.1212
                                        -0.1667 -0.1329  0.2948 -0.1406
  83. (0.00059) RY ( 4) C  5            s( 37.66%)p 1.37( 51.75%)d 0.28( 10.58%)
                                         0.0000  0.0109  0.6136  0.0206 -0.7150
                                        -0.0002  0.0208  0.0005 -0.0735  0.2107
                                         0.0448  0.1814 -0.0397  0.1579
  84. (0.00041) RY ( 5) C  5            s(  1.76%)p 1.06(  1.87%)d54.71( 96.37%)
                                         0.0000  0.0010  0.1327  0.0040 -0.0791
                                        -0.0048  0.0819  0.0041 -0.0753 -0.4844
                                         0.5835  0.0026 -0.3335 -0.5266
  85. (0.00019) RY ( 6) C  5            s(  2.87%)p 6.24( 17.95%)d27.54( 79.18%)
                                         0.0000 -0.0071  0.1694 -0.0232  0.4186
                                         0.0076  0.0316  0.0070  0.0513  0.1376
                                         0.1069  0.4334 -0.6525  0.3845
  86. (0.00010) RY ( 7) C  5            s(  0.17%)p33.82(  5.78%)d99.99( 94.05%)
  87. (0.00001) RY ( 8) C  5            s(  0.86%)p 1.35(  1.16%)d99.99( 97.99%)
  88. (0.00000) RY ( 9) C  5            s(  0.01%)p 1.00(  0.37%)d99.99( 99.62%)
  89. (0.01803) RY ( 1) C  6            s( 11.53%)p 7.66( 88.33%)d 0.01(  0.13%)
                                         0.0000  0.0453  0.3366  0.0258 -0.4245
                                        -0.0296  0.5895 -0.0299  0.5943 -0.0246
                                        -0.0236  0.0128 -0.0016 -0.0017
  90. (0.00409) RY ( 2) C  6            s(  4.83%)p17.48( 84.45%)d 2.22( 10.72%)
                                         0.0000 -0.0157  0.2193  0.0419  0.8482
                                         0.0016  0.2132  0.0029  0.2790  0.1456
                                         0.1411  0.1005 -0.2027  0.1220
  91. (0.00223) RY ( 3) C  6            s(  0.01%)p 1.00( 14.12%)d 6.08( 85.87%)
                                         0.0000  0.0000  0.0097  0.0011  0.0116
                                         0.0250  0.2654 -0.0242 -0.2635 -0.3188
                                         0.3414  0.0153 -0.4187 -0.6819
  92. (0.00078) RY ( 4) C  6            s( 73.74%)p 0.16( 11.50%)d 0.20( 14.76%)
                                         0.0000 -0.0052  0.8587  0.0117  0.0272
                                        -0.0197 -0.2742 -0.0200 -0.1953 -0.0652
                                        -0.0586 -0.3068  0.1706 -0.1291
  93. (0.00022) RY ( 5) C  6            s(  0.26%)p99.99( 84.87%)d57.12( 14.87%)
[...]
  0 C               118.8     119.0     126.6     112.4      -7.4      -2.6
  1 N                -5.2      -0.5      -3.5      -0.4     116.5     141.2
  2 C                -0.1       0.0      -0.0      -0.1      -7.9     -27.8
  3 C                 0.5      -0.0      -0.1      -0.0       0.1      -1.2
  4 C                -0.1       0.0      -0.0      -0.0      -0.1       3.7
  7 H               -10.8      -7.4     -12.6      -3.3      -0.1      -0.0
  8 H                -1.4      -4.3      -5.2      -4.3       0.0      -0.0
  9 H                -1.6      -6.8      -5.1      -4.4       0.3       0.1
 10 H                -0.2       0.1       0.0      -0.0      -1.3     -13.1

                     54        55        56        57        58        59   
                   0.00000   0.00000   0.00000   0.00000   0.00000   0.00000
                   0.00054   0.00044   0.00031   0.00012   0.00003   0.00002
                  --------  --------  --------  --------  --------  --------
  0 C               -19.9      -3.0      -6.2     -19.4      -2.7      -0.7
  1 N               133.6     105.0     163.9     137.3     112.6     104.4
  2 C               -12.1      -1.6     -47.0     -13.7      -5.7      -0.8
  3 C                 0.3       0.0      -4.0      -0.2       0.6      -0.0
  4 C                -1.2      -0.1      -0.9      -0.7       0.5       0.1
  5 C                 0.1       0.0      -1.3      -0.2      -0.0      -0.1
  6 N                 0.0      -0.0      -0.3      -0.0      -0.0      -0.0
  7 H                 0.3      -0.0       0.3       0.4       0.1      -0.0
  8 H                 0.3       0.0      -0.2       0.4      -0.0      -0.0
  9 H                 0.1      -0.1      -0.2      -0.0       0.0      -0.0
 10 H                -1.5      -0.3      -3.3      -3.6      -5.2      -2.8
 14 H                 0.0      -0.0      -0.8       0.0      -0.0      -0.0

                     60        61        62        63        64        65   
                   0.00000   0.00000   0.00000   0.00000   0.00000   0.00000
                   0.00001   0.00559   0.00367   0.00254   0.00151   0.00098
                  --------  --------  --------  --------  --------  --------
  0 C                -0.8      -0.8      -6.7      -1.0       0.2       0.8
  1 N               104.4     -24.9     -63.2      -6.6      -6.0     -11.0
  2 C                -1.2     270.9     222.4     143.0     123.1     227.7
  3 C                -0.0     -86.4     -16.5      -7.1      -6.8     -25.4
  4 C                -0.1     -57.5     -34.5     -28.9     -10.1     -92.0
  5 C                 0.0      -5.5       0.1       1.1       0.6       1.6
  6 N                -0.0      -0.2      -0.3      -0.0       0.0      -0.0
  8 H                -0.0       0.0      -0.1      -0.0      -0.1      -0.3
  9 H                -0.0       0.1       0.1       0.1      -0.1       0.0
 10 H                -2.2       0.0      -1.5      -0.1      -0.1       0.6
 11 H                -0.0       0.5      -0.2      -0.1      -0.4      -0.5
 12 H                -0.0       0.9      -0.2      -0.1      -0.2      -0.7
 13 H                -0.0       0.3       1.1       0.2       0.1       0.3
 14 H                -0.0       2.6      -0.4      -0.6      -0.1      -1.2

                     66        67        68        69        70        71   
                   0.00000   0.00000   0.00000   0.00000   0.00000   0.00000
                   0.00051   0.00034   0.00020   0.00001   0.00207   0.00107
                  --------  --------  --------  --------  --------  --------
  0 C                 0.2       1.0      -0.0      -0.0      -1.7      -5.6
  1 N                -6.5      -4.9      -1.5      -2.8      -1.8      -1.4
  2 C               153.9     112.4     111.1     112.4     -26.9     -89.5
  3 C                -9.8      -5.0      -7.3      -3.2     156.5     221.3
  4 C               -43.8      -2.3      -2.9      -6.3       4.1      -4.6
  5 C                 6.8      -1.1       0.1       0.2      -3.3      -5.5
  6 N                 0.3      -0.1       0.0      -0.0      -0.1      -0.1
  9 H                -0.0      -0.0      -0.1      -0.0      -1.0      -0.1
 10 H                -0.2       0.0       0.0      -0.1      -0.0       0.1
 11 H                -0.3      -0.1       0.5      -0.1      -2.2     -13.8
 12 H                -0.2       0.0       0.1      -0.1      -2.2      -0.7
 13 H                 0.2      -0.1      -0.2      -0.0     -21.6      -0.4
 14 H                -0.4       0.2       0.0      -0.1       0.1       0.3

                     72        73        74        75        76        77   
                   0.00000   0.00000   0.00000   0.00000   0.00000   0.00000
                   0.00092   0.00013   0.00003   0.00002   0.00001   0.00001
                  --------  --------  --------  --------  --------  --------
  0 C                -1.8       0.0      -0.0       0.0      -0.0       0.2
  1 N                -0.9      -0.1      -0.1      -0.1      -0.2      -0.1
  2 C               -31.6      -1.5      -0.5      -1.6      -2.9      -8.0
  3 C               155.1     153.1     116.2     112.8     112.3     117.2
  4 C                -1.7       0.0      -0.0       0.0      -0.1       1.2
  5 C                -1.9       0.3       0.0      -0.1      -0.1      -0.4
  8 H                 0.1      -0.1      -0.0      -0.0       0.0      -0.0
  9 H                -0.3       0.1       0.0       0.0      -0.0      -0.0
 11 H                -2.2     -17.1      -6.3      -3.8      -4.3      -2.2
 12 H               -13.6     -15.7      -7.0      -2.7      -2.9      -0.5
 13 H                -1.3     -19.0      -2.3      -4.6      -1.6      -7.5
 14 H                 0.1      -0.0      -0.0      -0.0      -0.0       0.0

                     78        79        80        81        82        83   
                   0.00000   0.00000   0.00000   0.00000   0.00000   0.00000
                   0.00000   0.00461   0.00209   0.00094   0.00059   0.00041
                  --------  --------  --------  --------  --------  --------
  0 C                 0.1      -0.1      -0.0      -0.1      -0.4      -0.0
  1 N                -0.1       2.3      -0.1      -0.6       0.6       0.0
  2 C                -2.5     -51.8      -9.5     -20.3    -170.0      -6.6
  3 C               116.4       0.6       0.0       1.5      -4.7      -0.1
  4 C                 0.0     249.1     119.7     308.8     303.1     110.7
  5 C                -0.1     -68.9      -8.8    -152.8     -24.4      -3.7
  6 N                -0.0      -7.5      -0.6     -15.5      -1.9      -0.2
 10 H                -0.0      -0.9      -0.0      -0.1      -1.0      -0.0
 11 H                -1.8       0.0      -0.0      -0.0       0.2       0.0
 12 H                -7.8       0.0      -0.0      -0.0       0.3      -0.0
 13 H                -4.3      -0.3      -0.0      -0.7      -0.2      -0.0
 14 H                -0.0     -22.5      -0.5     -20.1      -1.5      -0.1

                     84        85        86        87        88        89   
                   0.00000   0.00000   0.00000   0.00000   0.00000   0.00000
                   0.00019   0.00010   0.00001   0.00000   0.01803   0.00409
                  --------  --------  --------  --------  --------  --------
  1 N                -1.0      -0.3      -0.2      -0.0      -0.7      -0.2
  2 C                -1.9      -6.0      -4.7      -1.0      -2.8       1.9
  3 C                -0.3       1.1       0.3      -0.0      -0.9      -3.2
  4 C               128.0     115.5     110.7     104.3     -30.2     -17.6
  5 C               -13.9      -3.9      -1.6      -0.5     333.4     131.5
  6 N                -1.5       0.1      -0.2      -0.0    -197.0      -9.0
 13 H                -0.0      -0.1      -0.0      -0.0      -2.5      -3.3
 14 H                -9.3      -6.5      -4.3      -2.7       0.7      -0.0

                     90        91        92        93        94        95   
                   0.00000   0.00000   0.00000   0.00000   0.00000   0.00000
                   0.00223   0.00078   0.00022   0.00010   0.00003   0.00001
                  --------  --------  --------  --------  --------  --------
  1 N                -0.0      -0.7       0.0      -0.1      -0.0      -0.1
  2 C                -0.0       3.8       0.3      -0.0      -0.2      -0.7
  3 C                -0.1      -5.5      -0.5      -0.1       0.2       0.1
  4 C                -2.5    -182.1      -9.4     -20.9     -15.3      -0.3
  5 C               107.9     275.8     116.3     125.2     118.5     102.5
  6 N                -5.4      12.0      -6.6      -3.8      -3.1      -1.0
 10 H                -0.0      -0.2      -0.0      -0.0      -0.0      -0.0
 13 H                -0.0      -0.5      -0.0      -0.0      -0.2      -0.5
 14 H                 0.0      -2.6      -0.1      -0.3       0.3       0.0

                     96        97        98        99       100       101   
                   0.00000   0.00000   0.00000   0.00000   0.00000   0.00000
                   0.00000   0.00129   0.00089   0.00013   0.00004   0.00000
                  --------  --------  --------  --------  --------  --------
  1 N                -0.0      -0.4      -0.0      -0.0      -0.0      -0.0
  2 C                -0.0      -0.4      -0.0      -0.0       0.1      -0.0
  3 C                -0.0      -0.3      -0.1       0.0      -0.1      -0.0
  4 C                -0.1     -31.7      -0.6       1.8      -1.7      -0.1
  5 C               100.5    -149.6      -8.8      -2.3     -12.9      -2.3
  6 N                -0.3     282.0     109.5     100.6     114.6     102.4
 13 H                -0.0       0.4      -0.0      -0.0       0.0      -0.0

                    102       103       104       105       106       107   
                   0.00000   0.00000   0.00000   0.00000   0.00000   0.00000
                   0.00000   0.00000   0.00000   0.00000   0.00096   0.00018
                  --------  --------  --------  --------  --------  --------
  0 C                -0.0      -0.0      -0.0      -0.0     -39.1      -2.9
  1 N                -0.0      -0.0       0.0      -0.0       0.8      -0.2
  4 C                -0.0      -0.1      -0.0      -0.0      -0.0      -0.0
  5 C                -3.2      -2.2      -1.0      -1.3       0.0      -0.0
  6 N               103.2     102.3     101.0     101.3       0.0      -0.0
  7 H                -0.0       0.0      -0.0      -0.0     140.2     103.9
  8 H                -0.0      -0.0      -0.0      -0.0      -0.4      -0.3
  9 H                -0.0      -0.0      -0.0      -0.0      -0.3      -0.3
 10 H                -0.0      -0.0       0.0      -0.0      -1.1      -0.0

                    108       109       110       111       112       113   
                   0.00000   0.00000   0.00000   0.00000   0.00000   0.00000
                   0.00009   0.00001   0.00282   0.00015   0.00012   0.00002
                  --------  --------  --------  --------  --------  --------
  0 C                -4.3      -6.9     -35.7      -2.8      -4.7      -6.7
  1 N                -0.1      -0.2       0.4      -0.2       0.1      -0.2
  2 C                -0.0      -0.0      -0.7      -0.0       0.0      -0.0
  3 C                -0.0      -0.0       0.2      -0.2       0.0      -0.1
  7 H               105.2     107.5      -0.3      -0.4      -0.4      -0.1
  8 H                -0.4      -0.1     138.2     103.9     105.4     107.3
  9 H                -0.3      -0.1      -0.4      -0.3      -0.4      -0.1
 12 H                -0.0      -0.0      -1.7      -0.0       0.0      -0.1

                    114       115       116       117       118       119   
                   0.00000   0.00000   0.00000   0.00000   0.00000   0.00000
                   0.00145   0.00018   0.00011   0.00002   0.00391   0.00059
                  --------  --------  --------  --------  --------  --------
  0 C               -37.9      -3.0      -4.1      -6.8      -2.6      -0.2
  1 N                -0.1      -0.1      -0.1      -0.2      -8.2      -3.4
  2 C                 0.3      -0.0       0.0      -0.0      -1.9      -0.2
  3 C                -1.3      -0.0      -0.0      -0.0      -0.0      -0.0
  4 C                 0.0      -0.0      -0.0      -0.0      -1.2      -0.1
  5 C                 0.0      -0.0      -0.0      -0.0      -0.2      -0.0
  7 H                -0.3      -0.3      -0.3      -0.1      -1.0      -0.0
  8 H                -0.5      -0.4      -0.4      -0.1      -0.0      -0.0
  9 H               143.8     104.0     104.9     107.4      -0.1      -0.0
 10 H                -0.0      -0.0      -0.0      -0.0     118.1     104.0
 11 H                -3.8      -0.0      -0.0      -0.1       0.0      -0.0
 12 H                -0.2      -0.1      -0.0      -0.0      -0.0      -0.0
 14 H                -0.0      -0.0      -0.0      -0.0      -2.8      -0.0

                    120       121       122       123       124       125   
                   0.00000   0.00000   0.00000   0.00000   0.00000   0.00000
                   0.00015   0.00004   0.00173   0.00017   0.00014   0.00003
                  --------  --------  --------  --------  --------  --------
  0 C                -0.2      -0.1       0.3      -0.0      -0.0      -0.0
  1 N                -3.4      -5.5      -0.0      -0.1      -0.1      -0.0
  2 C                -0.4      -0.2      -0.5      -0.2      -0.0      -0.1
  3 C                -0.0      -0.0     -34.8      -2.9      -3.5      -7.6
  4 C                -0.1       0.1       0.3      -0.1      -0.0      -0.0
  9 H                -0.0      -0.0      -3.7      -0.0      -0.0      -0.2
 10 H               104.3     105.9      -0.0      -0.0      -0.0      -0.0
 11 H                -0.0      -0.0     138.7     104.1     104.5     108.2
 12 H                -0.0      -0.0      -0.1      -0.5      -0.4      -0.1
 13 H                -0.0      -0.0      -0.3      -0.2      -0.4      -0.1

                    126       127       128       129       130       131   
                   0.00000   0.00000   0.00000   0.00000   0.00000   0.00000
                   0.00141   0.00016   0.00015   0.00003   0.00147   0.00014
                  --------  --------  --------  --------  --------  --------
  0 C                -1.2      -0.0      -0.0      -0.1      -0.1      -0.0
  1 N                 0.0      -0.1      -0.1      -0.1       0.2      -0.1
  2 C                -0.7      -0.2      -0.1      -0.1       1.6      -0.3
  3 C               -34.0      -3.0      -3.2      -7.8     -45.9      -3.2
  4 C                 0.4      -0.1      -0.0      -0.0      -1.2      -0.2
  5 C                 0.0      -0.0      -0.0      -0.0      -6.7      -0.1
  6 N                -0.0      -0.0      -0.0       0.0       0.6      -0.1
  8 H                -1.6       0.0      -0.0      -0.1      -0.0      -0.0
  9 H                -0.2      -0.0      -0.0      -0.0      -0.0      -0.0
 11 H                -0.1      -0.6      -0.4      -0.1      -0.4      -0.3
 12 H               137.6     104.1     104.3     108.4      -0.3      -0.2
 13 H                -0.3      -0.1      -0.3      -0.1     152.2     104.5

                    132       133       134       135       136       137   
                   0.00000   0.00000   0.00000   0.00000   0.00000   0.00000
                   0.00014   0.00004   0.00197   0.00027   0.00007   0.00005
                  --------  --------  --------  --------  --------  --------
  1 N                -0.0      -0.0      -0.8      -0.0      -0.1      -0.0
  2 C                -0.1      -0.1       0.4      -0.1      -1.0      -0.0
  3 C                -3.0      -7.8       0.6      -0.0      -0.1      -0.0
  4 C                -0.0      -0.0     -44.2      -3.1      -5.0      -8.8
  5 C                -0.0      -0.2      -1.7      -0.1      -0.6       0.0
  6 N                -0.0       0.0       0.1      -0.0      -0.1      -0.0
 10 H                -0.0      -0.0      -2.7      -0.0      -0.0      -0.3
 11 H                -0.3      -0.1      -0.0      -0.0      -0.0      -0.0
 12 H                -0.3      -0.1      -0.0      -0.0      -0.0      -0.0
 13 H               103.8     108.4      -0.0      -0.0      -0.0       0.0
 14 H                -0.0      -0.0     148.4     103.3     106.9     109.1


Storing NBOs: 2713.nbo
                                    *** NBOs were stored ***

                                *** returned from GENNBO program ***

-------
TIMINGS
-------

Total SCF time: 0 days 0 hours 0 min 5 sec 

Total time                  ....       5.621 sec
Sum of individual times     ....       6.087 sec  (108.3%)

Fock matrix formation       ....       3.688 sec  ( 65.6%)
  Coulomb formation         ....       2.034 sec  ( 55.1% of F)
  Split-RI-J                ....       2.026 sec  ( 54.9% of F)
  XC integration            ....       1.649 sec  ( 44.7% of F)
    Basis function eval.    ....       0.574 sec  ( 34.8% of XC)
    Density eval.           ....       0.303 sec  ( 18.4% of XC)
    XC-Functional eval.     ....       0.106 sec  (  6.4% of XC)
    XC-Potential eval.      ....       0.629 sec  ( 38.2% of XC)
Diagonalization             ....       0.021 sec  (  0.4%)
Density matrix formation    ....       0.003 sec  (  0.1%)
Population analysis         ....       1.335 sec  ( 23.8%)
Initial guess               ....       0.354 sec  (  6.3%)
Orbital Transformation      ....       0.000 sec  (  0.0%)
Orbital Orthonormalization  ....       0.000 sec  (  0.0%)
DIIS solution               ....       0.005 sec  (  0.1%)
SOSCF solution              ....       0.016 sec  (  0.3%)
Grid generation             ....       0.665 sec  ( 11.8%)
           ************************************************************
           *              Shut down parallel processing               *
           ************************************************************

-------------------------   --------------------
FINAL SINGLE POINT ENERGY      -304.210688628277
-------------------------   --------------------


                            ***************************************
                            *     ORCA property calculations      *
                            ***************************************

                                    ---------------------
                                    Active property flags
                                    ---------------------
   (+) Dipole Moment


------------------------------------------------------------------------------
                       ORCA ELECTRIC PROPERTIES CALCULATION
------------------------------------------------------------------------------

Dipole Moment Calculation                       ... on
Quadrupole Moment Calculation                   ... off
Polarizability Calculation                      ... off
GBWName                                         ... 2713.gbw
Electron density file                           ... 2713.scfp.tmp

-------------
DIPOLE MOMENT
-------------
                                X             Y             Z
Electronic contribution:      8.00734      -1.88708      -2.41744
Nuclear contribution   :     -9.87501       3.17409       3.84566
                        -----------------------------------------
Total Dipole Moment    :     -1.86767       1.28701       1.42822
                        -----------------------------------------
Magnitude (a.u.)       :      2.68038
Magnitude (Debye)      :      6.81297


Timings for individual modules:

Sum of individual times         ...        6.774 sec (=   0.113 min)
GTO integral calculation        ...        0.470 sec (=   0.008 min)   6.9 %
SCF iterations                  ...        6.304 sec (=   0.105 min)  93.1 %
                             ****ORCA TERMINATED NORMALLY****
TOTAL RUN TIME: 0 days 0 hours 0 minutes 7 seconds 160 msec
