
                                 *****************
                                 * O   R   C   A *
                                 *****************

           --- An Ab Initio, DFT and Semiempirical electronic structure package ---

                  #######################################################
                  #                        -***-                        #
                  #  Department of molecular theory and spectroscopy    #
                  #              Directorship: Frank Neese              #
                  # Max Planck Institute for Chemical Energy Conversion #
                  #                  D-45470 Muelheim/Ruhr              #
                  #                       Germany                       #
                  #                                                     #
                  #                  All rights reserved                #
                  #                        -***-                        #
                  #######################################################


                         Program Version 3.0.3 - RELEASE   -


 With contributions from (in alphabetic order):
   Ute Becker             : Parallelization
   Dmytro Bykov           : SCF Hessian
   Dmitry Ganyushin       : Spin-Orbit,Spin-Spin,Magnetic field MRCI
   Andreas Hansen         : Spin unrestricted coupled pair/coupled cluster methods
   Dimitrios Liakos       : Extrapolation schemes; parallel MDCI
   Robert Izsak           : Overlap fitted RIJCOSX, COSX-SCS-MP3
   Christian Kollmar      : KDIIS, OOCD, Brueckner-CCSD(T), CCSD density
   Simone Kossmann        : Meta GGA functionals, TD-DFT gradient, OOMP2, MP2 Hessian
   Taras Petrenko         : DFT Hessian,TD-DFT gradient, ASA and ECA modules, normal mode analysis, Resonance Raman, ABS, FL, XAS/XES, NRVS
   Christoph Reimann      : Effective Core Potentials
   Michael Roemelt        : Restricted open shell CIS
   Christoph Riplinger    : Improved optimizer, TS searches, QM/MM, DLPNO-CCSD
   Barbara Sandhoefer     : DKH picture change effects
   Igor Schapiro          : Molecular dynamics
   Kantharuban Sivalingam : CASSCF convergence, NEVPT2
   Boris Wezisla          : Elementary symmetry handling
   Frank Wennmohs         : Technical directorship


 We gratefully acknowledge several colleagues who have allowed us to
 interface, adapt or use parts of their codes:
   Stefan Grimme, W. Hujo, H. Kruse, T. Risthaus : VdW corrections, initial TS optimization,
                                                   DFT functionals, gCP
   Ed Valeev                                     : LibInt (2-el integral package), F12 methods
   Garnet Chan, S. Sharma, R. Olivares           : DMRG
   Ulf Ekstrom                                   : XCFun DFT Library
   Mihaly Kallay                                 : mrcc  (arbitrary order and MRCC methods)
   Andreas Klamt, Michael Diedenhofen            : otool_cosmo (COSMO solvation model)
   Frank Weinhold                                : gennbo (NPA and NBO analysis)
   Christopher J. Cramer and Donald G. Truhlar   : smd solvation model


 Your calculation uses the libint2 library for the computation of 2-el integrals
 For citations please refer to: http://libint.valeyev.net

 This ORCA versions uses:
   CBLAS   interface :  Fast vector & matrix operations
   LAPACKE interface :  Fast linear algebra routines
   SCALAPACK package :  Parallel linear algebra routines


Your calculation utilizes the basis: Ahlrichs-VDZ
Cite in your paper:
H - Kr: A. Schaefer, H. Horn and R. Ahlrichs, J. Chem. Phys. 97, 2571 (1992).

Your calculation utilizes the basis: Ahlrichs SVPalls1+f
Cite in your paper:
Rb - Xe: A. Schaefer, C. Huber and R. Ahlrichs, J. Chem. Phys. 100, 5829 (1994).

================================================================================
                                        WARNINGS
                       Please study these warnings very carefully!
================================================================================
Now building the actual basis set


INFO   : the flag for use of LIBINT has been found!

================================================================================
                                       INPUT FILE
================================================================================
NAME = 2756.inp
|  1> ! RI PBE def2-SVP def2-SVP/J NBO PAL2
|  2> % maxcore 2000
|  3> % output
|  4>     # printlevel mini
|  5>     print[ P_Basis ] 0
|  6>     print[ P_SCFInfo ] 1
|  7>     print[ P_SCFIterInfo ] 1
|  8>     print[ P_OrbEn ] 0
|  9>     print[ P_Cartesian ] 0
| 10> end
| 11> *xyz 0 1
| 12>  C        3.2896390000    -2.2582130000     1.0922220000 
| 13>  N        3.9397900000    -1.0212750000     0.7626750000 
| 14>  C        4.2978560000    -0.8511080000    -0.4400300000 
| 15>  N        4.9203470000     0.2689620000    -0.8831580000 
| 16>  C        5.3442110000     0.4994770000    -2.2437960000 
| 17>  C        4.6230740000     1.6954360000    -2.8528840000 
| 18>  C        6.8570160000     0.6570720000    -2.3330350000 
| 19>  H        3.8531970000    -2.7877550000     1.8676530000 
| 20>  H        3.1733130000    -2.9390010000     0.2332700000 
| 21>  H        2.2942070000    -2.0647330000     1.5057230000 
| 22>  H        4.1328360000    -1.6017890000    -1.2283420000 
| 23>  H        5.0912900000     0.9828460000    -0.1922560000 
| 24>  H        5.0575620000    -0.3974150000    -2.8034570000 
| 25>  H        4.8653280000     2.6096700000    -2.3025050000 
| 26>  H        3.5411110000     1.5565540000    -2.8174640000 
| 27>  H        4.9217530000     1.8451140000    -3.8932180000 
| 28>  H        7.1852570000     1.5313780000    -1.7627090000 
| 29>  H        7.1761600000     0.7971470000    -3.3686210000 
| 30>  H        7.3640320000    -0.2203580000    -1.9277680000 
| 31> *
| 32> 
| 33>                          ****END OF INPUT****
================================================================================

                       ****************************
                       * Single Point Calculation *
                       ****************************

--------------------------------
INTERNAL COORDINATES (ANGSTROEM)
--------------------------------
 C      0   0   0   0.000000     0.000     0.000
 N      1   0   0   1.435727     0.000     0.000
 C      2   1   0   1.266360   117.504     0.000
 N      3   2   1   1.355881   123.450   180.008
 C      4   3   2   1.443653   125.080   179.951
 C      5   4   3   1.523596   111.294   117.585
 C      5   4   3   1.523607   111.299   242.533
 H      1   2   3   1.095128   110.248   121.284
 H      1   2   3   1.102181   113.645     0.000
 H      1   2   3   1.095127   110.247   238.722
 H      3   2   1   1.100995   123.094     0.000
 H      4   3   2   1.008066   116.032     0.000
 H      5   4   3   1.095355   105.901     0.060
 H      6   5   4   1.094270   110.485    62.522
 H      6   5   4   1.091415   110.876   302.783
 H      6   5   4   1.092661   111.025   181.939
 H      7   5   4   1.094269   110.484   297.477
 H      7   5   4   1.092663   111.025   178.059
 H      7   5   4   1.091416   110.876    57.215

---------------------------
INTERNAL COORDINATES (A.U.)
---------------------------
 C      0   0   0   0.000000     0.000     0.000
 N      1   0   0   2.713132     0.000     0.000
 C      2   1   0   2.393073   117.504     0.000
 N      3   2   1   2.562244   123.450   180.008
 C      4   3   2   2.728109   125.080   179.951
 C      5   4   3   2.879179   111.294   117.585
 C      5   4   3   2.879200   111.299   242.533
 H      1   2   3   2.069492   110.248   121.284
 H      1   2   3   2.082820   113.645     0.000
 H      1   2   3   2.069490   110.247   238.722
 H      3   2   1   2.080578   123.094     0.000
 H      4   3   2   1.904969   116.032     0.000
 H      5   4   3   2.069922   105.901     0.060
 H      6   5   4   2.067871   110.485    62.522
 H      6   5   4   2.062475   110.876   302.783
 H      6   5   4   2.064830   111.025   181.939
 H      7   5   4   2.067869   110.484   297.477
 H      7   5   4   2.064834   111.025   178.059
 H      7   5   4   2.062478   110.876    57.215



           ************************************************************
           *        Program running with 2 parallel MPI-processes     *
           *              working on a common directory               *
           ************************************************************
------------------------------------------------------------------------------
                           ORCA GTO INTEGRAL CALCULATION
                           -- RI-GTO INTEGRALS CHOSEN --
------------------------------------------------------------------------------

                         BASIS SET STATISTICS AND STARTUP INFO

Gaussian basis set:
 # of primitive gaussian shells          ...  144
 # of primitive gaussian functions       ...  252
 # of contracted shells                  ...   78
 # of contracted basis functions         ...  158
 Highest angular momentum                ...    2
 Maximum contraction depth               ...    5
Auxiliary gaussian basis set:
 # of primitive gaussian shells          ...  264
 # of primitive gaussian functions       ...  682
 # of contracted shells                  ...  165
 # of contracted aux-basis functions     ...  475
 Highest angular momentum                ...    4
 Maximum contraction depth               ...    7
Ratio of auxiliary to basis functions    ...  3.01
Integral package used                  ... LIBINT
 One Electron integrals                  ... done
 Ordering auxiliary basis shells         ... done
 Integral threshhold             Thresh  ...  1.000e-10
 Primitive cut-off               TCut    ...  1.000e-11
 Pre-screening matrix                    ... done
 Shell pair data                         ... 
 Ordering of the shell pairs             ... done (   0.000 sec) 2799 of 3081 pairs
 Determination of significant pairs      ... done (   0.000 sec)
 Creation of shell pair data             ... done (   0.000 sec)
 Storage of shell pair data              ... done (   0.001 sec)
 Shell pair data done in (   0.001 sec)
 Computing two index integrals           ... done
 Cholesky decomposition of the V-matrix  ... done


Timings:
 Total evaluation time                   ...   0.159 sec (  0.003 min)
 One electron matrix time                ...   0.021 sec (  0.000 min) = 13.1%
 Schwartz matrix evaluation time         ...   0.072 sec (  0.001 min) = 45.0%
 Two index repulsion integral time       ...   0.005 sec (  0.000 min) =  2.9%
 Cholesky decomposition of V             ...   0.004 sec (  0.000 min) =  2.6%
 Three index repulsion integral time     ...   0.000 sec (  0.000 min) =  0.0%

           ************************************************************
           *              Shut down parallel processing               *
           ************************************************************


           ************************************************************
           *        Program running with 2 parallel MPI-processes     *
           *              working on a common directory               *
           ************************************************************
-------------------------------------------------------------------------------
                                 ORCA SCF
-------------------------------------------------------------------------------

------------
SCF SETTINGS
------------
Hamiltonian:
 Density Functional     Method          .... DFT(GTOs)
 Exchange Functional    Exchange        .... PBE
   PBE kappa parameter  XKappa          ....  0.804000
 Correlation Functional Correlation     .... PBE
 LDA part of GGA corr.  LDAOpt          .... PW91-LDA
 Gradients option       PostSCFGGA      .... off
   NL short-range parameter             ....  6.400000
 RI-approximation to the Coulomb term is turned on
   Number of auxiliary basis functions  .... 475


General Settings:
 Integral files         IntName         .... 2756
 Hartree-Fock type      HFTyp           .... RHF
 Total Charge           Charge          ....    0
 Multiplicity           Mult            ....    1
 Number of Electrons    NEL             ....   56
 Basis Dimension        Dim             ....  158
 Nuclear Repulsion      ENuc            ....    306.8345378461 Eh

Convergence Acceleration:
 DIIS                   CNVDIIS         .... on
   Start iteration      DIISMaxIt       ....    12
   Startup error        DIISStart       ....  0.200000
   # of expansion vecs  DIISMaxEq       ....     5
   Bias factor          DIISBfac        ....   1.050
   Max. coefficient     DIISMaxC        ....  10.000
 Newton-Raphson         CNVNR           .... off
 SOSCF                  CNVSOSCF        .... on
   Start iteration      SOSCFMaxIt      ....   150
   Startup grad/error   SOSCFStart      ....  0.003300
 Level Shifting         CNVShift        .... on
   Level shift para.    LevelShift      ....    0.2500
   Turn off err/grad.   ShiftErr        ....    0.0010
 Zerner damping         CNVZerner       .... off
 Static damping         CNVDamp         .... on
   Fraction old density DampFac         ....    0.7000
   Max. Damping (<1)    DampMax         ....    0.9800
   Min. Damping (>=0)   DampMin         ....    0.0000
   Turn off err/grad.   DampErr         ....    0.1000
 Fernandez-Rico         CNVRico         .... off

SCF Procedure:
 Maximum # iterations   MaxIter         ....   125
 SCF integral mode      SCFMode         .... Direct
   Integral package                     .... LIBINT
 Reset frequeny         DirectResetFreq ....    20
 Integral Threshold     Thresh          ....  1.000e-10 Eh
 Primitive CutOff       TCut            ....  1.000e-11 Eh

Convergence Tolerance:
 Convergence Check Mode ConvCheckMode   .... Total+1el-Energy
 Energy Change          TolE            ....  1.000e-06 Eh
 1-El. energy change                    ....  1.000e-03 Eh
 Orbital Gradient       TolG            ....  5.000e-05
 Orbital Rotation angle TolX            ....  5.000e-05
 DIIS Error             TolErr          ....  1.000e-06


Diagonalization of the overlap matrix:
Smallest eigenvalue                        ... 2.023e-03
Time for diagonalization                   ...    0.015 sec
Threshold for overlap eigenvalues          ... 1.000e-08
Number of eigenvalues below threshold      ... 0
Time for construction of square roots      ...    0.004 sec
Total time needed                          ...    0.019 sec

-------------------
DFT GRID GENERATION
-------------------

General Integration Accuracy     IntAcc      ...  4.340
Radial Grid Type                 RadialGrid  ... Gauss-Chebyshev
Angular Grid (max. acc.)         AngularGrid ... Lebedev-110
Angular grid pruning method      GridPruning ... 3 (G Style)
Weight generation scheme         WeightScheme... Becke
Basis function cutoff            BFCut       ...    1.0000e-10
Integration weight cutoff        WCut        ...    1.0000e-14
Grids for H and He will be reduced by one unit

# of grid points (after initial pruning)     ...  21212 (   0.0 sec)
# of grid points (after weights+screening)   ...  19678 (   0.1 sec)
nearest neighbour list constructed           ...    0.0 sec
Grid point re-assignment to atoms done       ...    0.0 sec
Grid point division into batches done        ...    0.0 sec
Reduced shell lists constructed in    0.1 sec

Total number of grid points                  ...    19678
Total number of batches                      ...      320
Average number of points per batch           ...       61
Average number of grid points per atom       ...     1036
Average number of shells per batch           ...    52.75 (67.62%)
Average number of basis functions per batch  ...   102.88 (65.12%)
Average number of large shells per batch     ...    40.45 (76.70%)
Average number of large basis fcns per batch ...    79.41 (77.19%)
Maximum spatial batch extension              ...  19.60, 25.60, 17.18 au
Average spatial batch extension              ...   1.52,  1.55,  1.40 au

Time for grid setup =    0.163 sec

------------------------------
INITIAL GUESS: MODEL POTENTIAL
------------------------------
Loading Hartree-Fock densities                     ... done
Calculating cut-offs                               ... done
Setting up the integral package                    ... done
Initializing the effective Hamiltonian             ... done
Starting the Coulomb interaction                   ... done (   0.1 sec)
Reading the grid                                   ... done
Mapping shells                                     ... done
Starting the XC term evaluation                    ... done (   0.1 sec)
  promolecular density results
     # of electrons  =     55.995005796
     EX              =    -42.200976467
     EC              =     -1.826927924
     EX+EC           =    -44.027904392
Transforming the Hamiltonian                       ... done (   0.0 sec)
Diagonalizing the Hamiltonian                      ... done (   0.0 sec)
Back transforming the eigenvectors                 ... done (   0.0 sec)
Now organizing SCF variables                       ... done
                      ------------------
                      INITIAL GUESS DONE (   0.4 sec)
                      ------------------
--------------
SCF ITERATIONS
--------------
ITER       Energy         Delta-E        Max-DP      RMS-DP      [F,P]     Damp
               ***  Starting incremental Fock matrix formation  ***
  0   -306.3856056642   0.000000000000 0.08967688  0.00287224  0.1942759 0.7000
  1   -306.5031858751  -0.117580210943 0.04912429  0.00200752  0.0762279 0.7000
                               ***Turning on DIIS***
  2   -306.5413899247  -0.038204049630 0.05583088  0.00293897  0.0228878 0.0000
  3   -306.5991116596  -0.057721734843 0.03703828  0.00147340  0.0478013 0.0000
  4   -306.6171870711  -0.018075411492 0.01590593  0.00049568  0.0180405 0.0000
  5   -306.6188473978  -0.001660326718 0.00489451  0.00017553  0.0038515 0.0000
                      *** Initiating the SOSCF procedure ***
                           *** Shutting down DIIS ***
                      *** Re-Reading the Fockian *** 
                      *** Removing any level shift *** 
ITER      Energy       Delta-E        Grad      Rot      Max-DP    RMS-DP
  6   -306.61894578  -0.0000983792  0.000330  0.000330  0.001588  0.000066
               *** Restarting incremental Fock matrix formation ***
  7   -306.61895536  -0.0000095792  0.000215  0.000712  0.001231  0.000048
  8   -306.61895414   0.0000012115  0.000548  0.000673  0.000925  0.000018
  9   -306.61895712  -0.0000029802  0.000113  0.000517  0.000431  0.000016
                 **** Energy Check signals convergence ****
              ***Rediagonalizing the Fockian in SOSCF/NRSCF***

               *****************************************************
               *                     SUCCESS                       *
               *           SCF CONVERGED AFTER  10 CYCLES          *
               *****************************************************

Setting up the final grid:

General Integration Accuracy     IntAcc      ...  4.670
Radial Grid Type                 RadialGrid  ... Gauss-Chebyshev
Angular Grid (max. acc.)         AngularGrid ... Lebedev-302
Angular grid pruning method      GridPruning ... 3 (G Style)
Weight generation scheme         WeightScheme... Becke
Basis function cutoff            BFCut       ...    1.0000e-10
Integration weight cutoff        WCut        ...    1.0000e-14
Grids for H and He will be reduced by one unit

# of grid points (after initial pruning)     ...  84212 (   0.0 sec)
# of grid points (after weights+screening)   ...  76985 (   0.1 sec)
nearest neighbour list constructed           ...    0.0 sec
Grid point re-assignment to atoms done       ...    0.0 sec
Grid point division into batches done        ...    0.2 sec
Reduced shell lists constructed in    0.5 sec

Total number of grid points                  ...    76985
Total number of batches                      ...     1214
Average number of points per batch           ...       63
Average number of grid points per atom       ...     4052
Average number of shells per batch           ...    49.20 (63.08%)
Average number of basis functions per batch  ...    95.40 (60.38%)
Average number of large shells per batch     ...    36.65 (74.50%)
Average number of large basis fcns per batch ...    71.31 (74.74%)
Maximum spatial batch extension              ...  17.95, 18.86, 16.75 au
Average spatial batch extension              ...   1.04,  1.05,  1.01 au

Final grid set up in    0.7 sec
Final integration                            ... done (   0.5 sec)
Change in XC energy                          ...     0.000442334
Integrated number of electrons               ...    56.000175565
Previous integrated no of electrons          ...    56.000480504

----------------
TOTAL SCF ENERGY
----------------

Total Energy       :         -306.61851436 Eh           -8343.51395 eV

Components:
Nuclear Repulsion  :          306.83453785 Eh            8349.39225 eV
Electronic Energy  :         -613.45305220 Eh          -16692.90620 eV

One Electron Energy:        -1021.00968072 Eh          -27783.08588 eV
Two Electron Energy:          407.55662852 Eh           11090.17968 eV

Virial components:
Potential Energy   :         -610.10159910 Eh          -16601.70853 eV
Kinetic Energy     :          303.48308474 Eh            8258.19457 eV
Virial Ratio       :            2.01033148


DFT components:
N(Alpha)           :       28.000087782530 electrons
N(Beta)            :       28.000087782530 electrons
N(Total)           :       56.000175565060 electrons
E(X)               :      -43.171616851163 Eh       
E(C)               :       -1.843715670914 Eh       
E(XC)              :      -45.015332522077 Eh       

---------------
SCF CONVERGENCE
---------------

  Last Energy change         ...    4.3362e-07  Tolerance :   1.0000e-06
  Last MAX-Density change    ...    3.0726e-04  Tolerance :   1.0000e-05
  Last RMS-Density change    ...    7.8938e-06  Tolerance :   1.0000e-06
  Last Orbital Gradient      ...    2.8859e-04  Tolerance :   5.0000e-05
  Last Orbital Rotation      ...    3.9815e-04  Tolerance :   5.0000e-05

             **** THE GBW FILE WAS UPDATED (2756.gbw) ****
             **** DENSITY FILE WAS UPDATED (2756.scfp.tmp) ****
             **** ENERGY FILE WAS UPDATED (2756.en.tmp) ****

                    ********************************
                    * MULLIKEN POPULATION ANALYSIS *
                    ********************************

-----------------------
MULLIKEN ATOMIC CHARGES
-----------------------
   0 C :    0.073581
   1 N :   -0.218863
   2 C :    0.010546
   3 N :   -0.106449
   4 C :   -0.044127
   5 C :    0.014228
   6 C :    0.027484
   7 H :    0.021327
   8 H :   -0.013419
   9 H :    0.020193
  10 H :   -0.028817
  11 H :    0.104993
  12 H :    0.013401
  13 H :    0.015186
  14 H :    0.030955
  15 H :    0.020865
  16 H :    0.014305
  17 H :    0.019497
  18 H :    0.025115
Sum of atomic charges:   -0.0000000

--------------------------------
MULLIKEN REDUCED ORBITAL CHARGES
--------------------------------
  0 C s       :     2.978269  s :     2.978269
      pz      :     1.003770  p :     2.906827
      px      :     1.005009
      py      :     0.898048
      dz2     :     0.004455  d :     0.041323
      dxz     :     0.006186
      dyz     :     0.012423
      dx2y2   :     0.010151
      dxy     :     0.008107
  1 N s       :     3.544770  s :     3.544770
      pz      :     1.210336  p :     3.647626
      px      :     1.195459
      py      :     1.241830
      dz2     :     0.008941  d :     0.026468
      dxz     :     0.005890
      dyz     :     0.004985
      dx2y2   :     0.003409
      dxy     :     0.003244
  2 C s       :     3.102524  s :     3.102524
      pz      :     0.934884  p :     2.810420
      px      :     0.950208
      py      :     0.925327
      dz2     :     0.016077  d :     0.076510
      dxz     :     0.013527
      dyz     :     0.025037
      dx2y2   :     0.011781
      dxy     :     0.010089
  3 N s       :     3.339873  s :     3.339873
      pz      :     1.070893  p :     3.746842
      px      :     1.523867
      py      :     1.152082
      dz2     :     0.004231  d :     0.019734
      dxz     :     0.003010
      dyz     :     0.006645
      dx2y2   :     0.003226
      dxy     :     0.002623
  4 C s       :     3.071631  s :     3.071631
      pz      :     0.871333  p :     2.914511
      px      :     1.007114
      py      :     1.036064
      dz2     :     0.014201  d :     0.057984
      dxz     :     0.013379
      dyz     :     0.010947
      dx2y2   :     0.011064
      dxy     :     0.008394
  5 C s       :     2.993529  s :     2.993529
      pz      :     0.984951  p :     2.967773
      px      :     0.999035
      py      :     0.983786
      dz2     :     0.006084  d :     0.024471
      dxz     :     0.002238
      dyz     :     0.004910
      dx2y2   :     0.007993
      dxy     :     0.003245
  6 C s       :     2.993833  s :     2.993833
      pz      :     0.995024  p :     2.954296
      px      :     0.953316
      py      :     1.005956
      dz2     :     0.005166  d :     0.024387
      dxz     :     0.003847
      dyz     :     0.004151
      dx2y2   :     0.005092
      dxy     :     0.006131
  7 H s       :     0.956277  s :     0.956277
      pz      :     0.009446  p :     0.022397
      px      :     0.007344
      py      :     0.005606
  8 H s       :     0.990959  s :     0.990959
      pz      :     0.009998  p :     0.022459
      px      :     0.005113
      py      :     0.007348
  9 H s       :     0.957372  s :     0.957372
      pz      :     0.006715  p :     0.022435
      px      :     0.011878
      py      :     0.003842
 10 H s       :     1.008621  s :     1.008621
      pz      :     0.008066  p :     0.020196
      px      :     0.003879
      py      :     0.008250
 11 H s       :     0.850977  s :     0.850977
      pz      :     0.015693  p :     0.044030
      px      :     0.012087
      py      :     0.016250
 12 H s       :     0.965833  s :     0.965833
      pz      :     0.005529  p :     0.020766
      px      :     0.004829
      py      :     0.010408
 13 H s       :     0.960976  s :     0.960976
      pz      :     0.007309  p :     0.023838
      px      :     0.005694
      py      :     0.010835
 14 H s       :     0.945525  s :     0.945525
      pz      :     0.005338  p :     0.023520
      px      :     0.013333
      py      :     0.004849
 15 H s       :     0.955478  s :     0.955478
      pz      :     0.012813  p :     0.023656
      px      :     0.005769
      py      :     0.005074
 16 H s       :     0.961728  s :     0.961728
      pz      :     0.007849  p :     0.023966
      px      :     0.005430
      py      :     0.010687
 17 H s       :     0.956618  s :     0.956618
      pz      :     0.012754  p :     0.023885
      px      :     0.005296
      py      :     0.005834
 18 H s       :     0.951301  s :     0.951301
      pz      :     0.006688  p :     0.023584
      px      :     0.006138
      py      :     0.010758


                     *******************************
                     * LOEWDIN POPULATION ANALYSIS *
                     *******************************

----------------------
LOEWDIN ATOMIC CHARGES
----------------------
   0 C :   -0.011070
   1 N :   -0.173681
   2 C :    0.013521
   3 N :    0.009512
   4 C :    0.010911
   5 C :   -0.067774
   6 C :   -0.065120
   7 H :    0.019711
   8 H :   -0.002588
   9 H :    0.020001
  10 H :   -0.014044
  11 H :    0.070492
  12 H :    0.026144
  13 H :    0.024812
  14 H :    0.029397
  15 H :    0.028638
  16 H :    0.024522
  17 H :    0.028175
  18 H :    0.028441

-------------------------------
LOEWDIN REDUCED ORBITAL CHARGES
-------------------------------
  0 C s       :     2.838168  s :     2.838168
      pz      :     1.056444  p :     3.069722
      px      :     1.047977
      py      :     0.965300
      dz2     :     0.010804  d :     0.103181
      dxz     :     0.015824
      dyz     :     0.031536
      dx2y2   :     0.025116
      dxy     :     0.019899
  1 N s       :     3.222933  s :     3.222933
      pz      :     1.361234  p :     3.895096
      px      :     1.217580
      py      :     1.316283
      dz2     :     0.021447  d :     0.055652
      dxz     :     0.010653
      dyz     :     0.009734
      dx2y2   :     0.006713
      dxy     :     0.007105
  2 C s       :     2.850399  s :     2.850399
      pz      :     1.032110  p :     2.947481
      px      :     0.951108
      py      :     0.964263
      dz2     :     0.044118  d :     0.188599
      dxz     :     0.030857
      dyz     :     0.064139
      dx2y2   :     0.025732
      dxy     :     0.023753
  3 N s       :     3.047849  s :     3.047849
      pz      :     1.161039  p :     3.889702
      px      :     1.493187
      py      :     1.235476
      dz2     :     0.012181  d :     0.052937
      dxz     :     0.007446
      dyz     :     0.019086
      dx2y2   :     0.007520
      dxy     :     0.006704
  4 C s       :     2.830637  s :     2.830637
      pz      :     0.925318  p :     3.021293
      px      :     1.036444
      py      :     1.059532
      dz2     :     0.034220  d :     0.137159
      dxz     :     0.028910
      dyz     :     0.026708
      dx2y2   :     0.028687
      dxy     :     0.018633
  5 C s       :     2.846344  s :     2.846344
      pz      :     1.058814  p :     3.153193
      px      :     1.055947
      py      :     1.038432
      dz2     :     0.016950  d :     0.068237
      dxz     :     0.006133
      dyz     :     0.014406
      dx2y2   :     0.020848
      dxy     :     0.009901
  6 C s       :     2.846350  s :     2.846350
      pz      :     1.067133  p :     3.150450
      px      :     1.015900
      py      :     1.067417
      dz2     :     0.015494  d :     0.068320
      dxz     :     0.009705
      dyz     :     0.011769
      dx2y2   :     0.016561
      dxy     :     0.014791
  7 H s       :     0.915910  s :     0.915910
      pz      :     0.027199  p :     0.064380
      px      :     0.020090
      py      :     0.017090
  8 H s       :     0.936616  s :     0.936616
      pz      :     0.029126  p :     0.065972
      px      :     0.012739
      py      :     0.024106
  9 H s       :     0.915628  s :     0.915628
      pz      :     0.017188  p :     0.064371
      px      :     0.035653
      py      :     0.011530
 10 H s       :     0.945368  s :     0.945368
      pz      :     0.030092  p :     0.068675
      px      :     0.012427
      py      :     0.026156
 11 H s       :     0.803232  s :     0.803232
      pz      :     0.043644  p :     0.126276
      px      :     0.036667
      py      :     0.045965
 12 H s       :     0.907278  s :     0.907278
      pz      :     0.018072  p :     0.066578
      px      :     0.015629
      py      :     0.032877
 13 H s       :     0.908385  s :     0.908385
      pz      :     0.019517  p :     0.066803
      px      :     0.014302
      py      :     0.032985
 14 H s       :     0.903273  s :     0.903273
      pz      :     0.012891  p :     0.067331
      px      :     0.040811
      py      :     0.013629
 15 H s       :     0.904247  s :     0.904247
      pz      :     0.037986  p :     0.067115
      px      :     0.014912
      py      :     0.014217
 16 H s       :     0.908710  s :     0.908710
      pz      :     0.020153  p :     0.066768
      px      :     0.016299
      py      :     0.030316
 17 H s       :     0.904777  s :     0.904777
      pz      :     0.037248  p :     0.067048
      px      :     0.016196
      py      :     0.013605
 18 H s       :     0.904365  s :     0.904365
      pz      :     0.016790  p :     0.067194
      px      :     0.019759
      py      :     0.030646


                      *****************************
                      * MAYER POPULATION ANALYSIS *
                      *****************************

  NA   - Mulliken gross atomic population
  ZA   - Total nuclear charge
  QA   - Mulliken gross atomic charge
  VA   - Mayer's total valence
  BVA  - Mayer's bonded valence
  FA   - Mayer's free valence

  ATOM       NA         ZA         QA         VA         BVA        FA
  0 C      5.9264     6.0000     0.0736     3.9795     3.9795     0.0000
  1 N      7.2189     7.0000    -0.2189     3.1171     3.1171     0.0000
  2 C      5.9895     6.0000     0.0105     4.0949     4.0949     0.0000
  3 N      7.1064     7.0000    -0.1064     3.2488     3.2488     0.0000
  4 C      6.0441     6.0000    -0.0441     4.2232     4.2232    -0.0000
  5 C      5.9858     6.0000     0.0142     3.9478     3.9478    -0.0000
  6 C      5.9725     6.0000     0.0275     3.9456     3.9456     0.0000
  7 H      0.9787     1.0000     0.0213     0.9838     0.9838     0.0000
  8 H      1.0134     1.0000    -0.0134     0.9944     0.9944    -0.0000
  9 H      0.9798     1.0000     0.0202     0.9847     0.9847     0.0000
 10 H      1.0288     1.0000    -0.0288     1.0185     1.0185     0.0000
 11 H      0.8950     1.0000     0.1050     1.0285     1.0285     0.0000
 12 H      0.9866     1.0000     0.0134     0.9828     0.9828     0.0000
 13 H      0.9848     1.0000     0.0152     0.9999     0.9999     0.0000
 14 H      0.9690     1.0000     0.0310     0.9961     0.9961    -0.0000
 15 H      0.9791     1.0000     0.0209     0.9915     0.9915    -0.0000
 16 H      0.9857     1.0000     0.0143     1.0001     1.0001    -0.0000
 17 H      0.9805     1.0000     0.0195     0.9922     0.9922    -0.0000
 18 H      0.9749     1.0000     0.0251     0.9966     0.9966    -0.0000

  Mayer bond orders larger than 0.1
B(  0-C ,  1-N ) :   1.0621 B(  0-C ,  7-H ) :   0.9624 B(  0-C ,  8-H ) :   0.9385 
B(  0-C ,  9-H ) :   0.9615 B(  1-N ,  2-C ) :   1.8285 B(  2-C ,  3-N ) :   1.2069 
B(  2-C , 10-H ) :   0.9136 B(  3-N ,  4-C ) :   1.0001 B(  3-N , 11-H ) :   0.9272 
B(  4-C ,  5-C ) :   1.0857 B(  4-C ,  6-C ) :   1.0828 B(  4-C , 12-H ) :   0.9089 
B(  5-C , 13-H ) :   0.9577 B(  5-C , 14-H ) :   0.9597 B(  5-C , 15-H ) :   0.9557 
B(  6-C , 16-H ) :   0.9588 B(  6-C , 17-H ) :   0.9580 B(  6-C , 18-H ) :   0.9591 



 *********************************** NBO 6.0 ***********************************
             N A T U R A L   A T O M I C   O R B I T A L   A N D
          N A T U R A L   B O N D   O R B I T A L   A N A L Y S I S
 ***************************** Kiya KiyaLu (100703) ****************************
  (c) Copyright 1996-2015 Board of Regents of the University of Wisconsin System
      on behalf of the Theoretical Chemistry Institute.  All rights reserved.

          Cite this program as:

          NBO 6.0.  E. D. Glendening, J. K. Badenhoop, A. E. Reed,
          J. E. Carpenter, J. A. Bohmann, C. M. Morales, C. R. Landis,
          and F. Weinhold (Theoretical Chemistry Institute, University
          of Wisconsin, Madison, WI, 2013); http://nbo6.chem.wisc.edu/

       /NPA    / : Natural Population Analysis
       /NBO    / : Natural Bond Orbital Analysis
       /AONBO  / : Write the AO to NBO transformation to lfn77
       /FILE   / : Set to 2756

 Filename set to 2756

 Job title:  *** NBO job generated by orca_scf

 Warning: MOs are non-orthogonal; program will continue

 Warning: -1573.46163 electrons reside outside the linearly independent MO space


 NATURAL POPULATIONS:  Natural atomic orbital occupancies

  NAO Atom No lang   Type(AO)    Occupancy      Energy
 -------------------------------------------------------
   1    C  1  s      Cor( 1s)     1.99925      -9.78873
   2    C  1  s      Val( 2s)     1.07332      -0.19357
   3    C  1  s      Ryd( 3s)     0.00142       0.77903
   4    C  1  px     Val( 2p)     1.15823      -0.05102
   5    C  1  px     Ryd( 3p)     0.00079       0.52837
   6    C  1  py     Val( 2p)     0.98993      -0.04159
   7    C  1  py     Ryd( 3p)     0.00196       0.47530
   8    C  1  pz     Val( 2p)     1.20331      -0.05392
   9    C  1  pz     Ryd( 3p)     0.00286       0.56753
  10    C  1  dxy    Ryd( 3d)     0.00085       2.17944
  11    C  1  dxz    Ryd( 3d)     0.00062       2.23173
  12    C  1  dyz    Ryd( 3d)     0.00116       2.32309
  13    C  1  dx2y2  Ryd( 3d)     0.00104       2.21566
  14    C  1  dz2    Ryd( 3d)     0.00053       2.13701

  15    N  2  s      Cor( 1s)     1.99921     -13.77345
  16    N  2  s      Val( 2s)     1.35386      -0.41668
  17    N  2  s      Ryd( 3s)     0.00313       1.09268
  18    N  2  px     Val( 2p)     1.28824      -0.13010
  19    N  2  px     Ryd( 3p)     0.00194       0.90794
  20    N  2  py     Val( 2p)     1.41997      -0.13058
  21    N  2  py     Ryd( 3p)     0.00399       1.02810
  22    N  2  pz     Val( 2p)     1.46918      -0.14426
  23    N  2  pz     Ryd( 3p)     0.00333       0.96566
  24    N  2  dxy    Ryd( 3d)     0.00085       2.38125
  25    N  2  dxz    Ryd( 3d)     0.00164       2.41737
  26    N  2  dyz    Ryd( 3d)     0.00160       2.41593
  27    N  2  dx2y2  Ryd( 3d)     0.00075       2.31272
  28    N  2  dz2    Ryd( 3d)     0.00198       2.74962

  29    C  3  s      Cor( 1s)     1.99910      -9.81428
  30    C  3  s      Val( 2s)     0.84859      -0.10175
  31    C  3  s      Ryd( 3s)     0.00714       0.41215
  32    C  3  px     Val( 2p)     0.91713      -0.08242
  33    C  3  px     Ryd( 3p)     0.00224       0.51578
  34    C  3  py     Val( 2p)     0.94580      -0.02662
  35    C  3  py     Ryd( 3p)     0.00322       0.61138
  36    C  3  pz     Val( 2p)     0.98618      -0.00010
  37    C  3  pz     Ryd( 3p)     0.00571       0.68177
  38    C  3  dxy    Ryd( 3d)     0.00107       2.02808
  39    C  3  dxz    Ryd( 3d)     0.00138       2.06947
  40    C  3  dyz    Ryd( 3d)     0.00202       2.38295
  41    C  3  dx2y2  Ryd( 3d)     0.00128       1.99976
  42    C  3  dz2    Ryd( 3d)     0.00147       2.35427

  43    N  4  s      Cor( 1s)     1.99915     -13.85418
  44    N  4  s      Val( 2s)     1.22578      -0.45288
  45    N  4  s      Ryd( 3s)     0.00227       1.00698
  46    N  4  px     Val( 2p)     1.62839      -0.20419
  47    N  4  px     Ryd( 3p)     0.00437       0.91788
  48    N  4  py     Val( 2p)     1.42100      -0.21043
  49    N  4  py     Ryd( 3p)     0.00250       1.09137
  50    N  4  pz     Val( 2p)     1.35191      -0.20812
  51    N  4  pz     Ryd( 3p)     0.00270       1.20171
  52    N  4  dxy    Ryd( 3d)     0.00048       2.45920
  53    N  4  dxz    Ryd( 3d)     0.00034       2.38374
  54    N  4  dyz    Ryd( 3d)     0.00074       2.72732
  55    N  4  dx2y2  Ryd( 3d)     0.00048       2.41382
  56    N  4  dz2    Ryd( 3d)     0.00056       2.58381

  57    C  5  s      Cor( 1s)     1.99900      -9.81975
  58    C  5  s      Val( 2s)     0.91757      -0.18027
  59    C  5  s      Ryd( 3s)     0.00131       0.85603
  60    C  5  px     Val( 2p)     1.05284      -0.08910
  61    C  5  px     Ryd( 3p)     0.00260       0.59543
  62    C  5  py     Val( 2p)     1.15236      -0.08729
  63    C  5  py     Ryd( 3p)     0.00461       0.68681
  64    C  5  pz     Val( 2p)     0.90382      -0.06624
  65    C  5  pz     Ryd( 3p)     0.00161       0.57992
  66    C  5  dxy    Ryd( 3d)     0.00075       2.10634
  67    C  5  dxz    Ryd( 3d)     0.00126       2.02626
  68    C  5  dyz    Ryd( 3d)     0.00089       2.24647
  69    C  5  dx2y2  Ryd( 3d)     0.00096       2.22219
  70    C  5  dz2    Ryd( 3d)     0.00123       2.19207

  71    C  6  s      Cor( 1s)     1.99917      -9.77521
  72    C  6  s      Val( 2s)     1.09034      -0.22031
  73    C  6  s      Ryd( 3s)     0.00074       0.80727
  74    C  6  px     Val( 2p)     1.20837      -0.07299
  75    C  6  px     Ryd( 3p)     0.00321       0.60086
  76    C  6  py     Val( 2p)     1.14177      -0.07327
  77    C  6  py     Ryd( 3p)     0.00111       0.49692
  78    C  6  pz     Val( 2p)     1.21043      -0.07357
  79    C  6  pz     Ryd( 3p)     0.00169       0.56181
  80    C  6  dxy    Ryd( 3d)     0.00031       2.10785
  81    C  6  dxz    Ryd( 3d)     0.00024       2.09958
  82    C  6  dyz    Ryd( 3d)     0.00044       2.20749
  83    C  6  dx2y2  Ryd( 3d)     0.00069       2.32273
  84    C  6  dz2    Ryd( 3d)     0.00057       2.30414

  85    C  7  s      Cor( 1s)     1.99917      -9.77527
  86    C  7  s      Val( 2s)     1.09034      -0.22051
  87    C  7  s      Ryd( 3s)     0.00077       0.80951
  88    C  7  px     Val( 2p)     1.09133      -0.07392
  89    C  7  px     Ryd( 3p)     0.00165       0.47714
  90    C  7  py     Val( 2p)     1.23315      -0.07326
  91    C  7  py     Ryd( 3p)     0.00249       0.59977
  92    C  7  pz     Val( 2p)     1.23395      -0.07268
  93    C  7  pz     Ryd( 3p)     0.00206       0.58832
  94    C  7  dxy    Ryd( 3d)     0.00051       2.16971
  95    C  7  dxz    Ryd( 3d)     0.00030       2.10433
  96    C  7  dyz    Ryd( 3d)     0.00044       2.24005
  97    C  7  dx2y2  Ryd( 3d)     0.00048       2.20496
  98    C  7  dz2    Ryd( 3d)     0.00052       2.27820

  99    H  8  s      Val( 1s)     0.78723       0.07732
 100    H  8  s      Ryd( 2s)     0.00212       0.32965
 101    H  8  px     Ryd( 2p)     0.00035       1.88043
 102    H  8  py     Ryd( 2p)     0.00024       1.83759
 103    H  8  pz     Ryd( 2p)     0.00049       2.02766

 104    H  9  s      Val( 1s)     0.82307       0.05673
 105    H  9  s      Ryd( 2s)     0.00495       0.36688
 106    H  9  px     Ryd( 2p)     0.00019       1.69679
 107    H  9  py     Ryd( 2p)     0.00038       1.94227
 108    H  9  pz     Ryd( 2p)     0.00053       2.06025

 109    H 10  s      Val( 1s)     0.78675       0.07749
 110    H 10  s      Ryd( 2s)     0.00215       0.32717
 111    H 10  px     Ryd( 2p)     0.00071       2.20436
 112    H 10  py     Ryd( 2p)     0.00014       1.69326
 113    H 10  pz     Ryd( 2p)     0.00027       1.81837

 114    H 11  s      Val( 1s)     0.84996       0.03168
 115    H 11  s      Ryd( 2s)     0.00644       0.37118
 116    H 11  px     Ryd( 2p)     0.00016       1.66243
 117    H 11  py     Ryd( 2p)     0.00053       2.04155
 118    H 11  pz     Ryd( 2p)     0.00039       2.10679

 119    H 12  s      Val( 1s)     0.59592       0.08635
 120    H 12  s      Ryd( 2s)     0.00604       0.40463
 121    H 12  px     Ryd( 2p)     0.00047       1.69181
 122    H 12  py     Ryd( 2p)     0.00075       2.07297
 123    H 12  pz     Ryd( 2p)     0.00078       2.09302

 124    H 13  s      Val( 1s)     0.76673       0.06417
 125    H 13  s      Ryd( 2s)     0.00373       0.35339
 126    H 13  px     Ryd( 2p)     0.00014       1.75435
 127    H 13  py     Ryd( 2p)     0.00068       2.06509
 128    H 13  pz     Ryd( 2p)     0.00035       1.85495

 129    H 14  s      Val( 1s)     0.77941       0.05583
 130    H 14  s      Ryd( 2s)     0.00205       0.34060
 131    H 14  px     Ryd( 2p)     0.00017       1.74910
 132    H 14  py     Ryd( 2p)     0.00063       2.12860
 133    H 14  pz     Ryd( 2p)     0.00029       1.86957

 134    H 15  s      Val( 1s)     0.76601       0.06974
 135    H 15  s      Ryd( 2s)     0.00192       0.33541
 136    H 15  px     Ryd( 2p)     0.00085       2.28970
 137    H 15  py     Ryd( 2p)     0.00012       1.69248
 138    H 15  pz     Ryd( 2p)     0.00013       1.71770

 139    H 16  s      Val( 1s)     0.77118       0.06103
 140    H 16  s      Ryd( 2s)     0.00160       0.33616
 141    H 16  px     Ryd( 2p)     0.00017       1.76067
 142    H 16  py     Ryd( 2p)     0.00015       1.70693
 143    H 16  pz     Ryd( 2p)     0.00078       2.24734

 144    H 17  s      Val( 1s)     0.77980       0.05524
 145    H 17  s      Ryd( 2s)     0.00206       0.33932
 146    H 17  px     Ryd( 2p)     0.00019       1.76821
 147    H 17  py     Ryd( 2p)     0.00056       2.09336
 148    H 17  pz     Ryd( 2p)     0.00033       1.89345

 149    H 18  s      Val( 1s)     0.77184       0.06049
 150    H 18  s      Ryd( 2s)     0.00155       0.33755
 151    H 18  px     Ryd( 2p)     0.00018       1.74420
 152    H 18  py     Ryd( 2p)     0.00017       1.74083
 153    H 18  pz     Ryd( 2p)     0.00076       2.23068

 154    H 19  s      Val( 1s)     0.76648       0.06901
 155    H 19  s      Ryd( 2s)     0.00196       0.33265
 156    H 19  px     Ryd( 2p)     0.00024       1.83557
 157    H 19  py     Ryd( 2p)     0.00057       2.09299
 158    H 19  pz     Ryd( 2p)     0.00025       1.81156


 Summary of Natural Population Analysis:

                                     Natural Population
             Natural    ---------------------------------------------
  Atom No    Charge        Core      Valence    Rydberg      Total
 --------------------------------------------------------------------
    C  1   -0.43527      1.99925     4.42479    0.01124     6.43527
    N  2   -0.54966      1.99921     5.53124    0.01920     7.54966
    C  3    0.27767      1.99910     3.69769    0.02553     5.72233
    N  4   -0.64068      1.99915     5.62708    0.01444     7.64068
    C  5   -0.04080      1.99900     4.02657    0.01522     6.04080
    C  6   -0.65907      1.99917     4.65092    0.00898     6.65907
    C  7   -0.65715      1.99917     4.64876    0.00922     6.65715
    H  8    0.20957      0.00000     0.78723    0.00320     0.79043
    H  9    0.17087      0.00000     0.82307    0.00606     0.82913
    H 10    0.20998      0.00000     0.78675    0.00327     0.79002
    H 11    0.14252      0.00000     0.84996    0.00752     0.85748
    H 12    0.39604      0.00000     0.59592    0.00804     0.60396
    H 13    0.22837      0.00000     0.76673    0.00490     0.77163
    H 14    0.21745      0.00000     0.77941    0.00314     0.78255
    H 15    0.23097      0.00000     0.76601    0.00302     0.76903
    H 16    0.22611      0.00000     0.77118    0.00271     0.77389
    H 17    0.21705      0.00000     0.77980    0.00315     0.78295
    H 18    0.22549      0.00000     0.77184    0.00266     0.77451
    H 19    0.23050      0.00000     0.76648    0.00302     0.76950
 ====================================================================
 * Total *  0.00000     13.99406    41.85141    0.15452    56.00000

                                 Natural Population
 ---------------------------------------------------------
   Core                      13.99406 ( 99.9576% of   14)
   Valence                   41.85141 ( 99.6462% of   42)
   Natural Minimal Basis     55.84548 ( 99.7241% of   56)
   Natural Rydberg Basis      0.15452 (  0.2759% of   56)
 ---------------------------------------------------------

    Atom No         Natural Electron Configuration
 ----------------------------------------------------------------------------
      C  1      [core]2s( 1.07)2p( 3.35)3p( 0.01)
      N  2      [core]2s( 1.35)2p( 4.18)3p( 0.01)3d( 0.01)
      C  3      [core]2s( 0.85)2p( 2.85)3s( 0.01)3p( 0.01)3d( 0.01)
      N  4      [core]2s( 1.23)2p( 4.40)3p( 0.01)
      C  5      [core]2s( 0.92)2p( 3.11)3p( 0.01)3d( 0.01)
      C  6      [core]2s( 1.09)2p( 3.56)3p( 0.01)
      C  7      [core]2s( 1.09)2p( 3.56)3p( 0.01)
      H  8            1s( 0.79)
      H  9            1s( 0.82)
      H 10            1s( 0.79)
      H 11            1s( 0.85)2s( 0.01)
      H 12            1s( 0.60)2s( 0.01)
      H 13            1s( 0.77)
      H 14            1s( 0.78)
      H 15            1s( 0.77)
      H 16            1s( 0.77)
      H 17            1s( 0.78)
      H 18            1s( 0.77)
      H 19            1s( 0.77)


 NATURAL BOND ORBITAL ANALYSIS:

                            Occupancies       Lewis Structure    Low   High
         Max    Occ     -------------------  -----------------   occ   occ
  Cycle  Ctr   Thresh    Lewis   non-Lewis     CR  BD  nC  LP    (L)   (NL)
 ============================================================================
    1     2     1.90    55.09904   0.90096      7  19   0   2     2      2
    2     2     1.87    55.25529   0.74471      7  19   0   2     1      1
    3     2     1.76    55.25529   0.74471      7  19   0   2     1      1
    4     2     1.71    55.25529   0.74471      7  19   0   2     0      1
    5     2     1.87    55.25529   0.74471      7  19   0   2     1      1
 ----------------------------------------------------------------------------

 Strongly delocalized structure accepted

 -------------------------------------------------------
   Core                     13.99406 ( 99.958% of  14)
   Valence Lewis            41.26123 ( 98.241% of  42)
  ==================      =============================
   Total Lewis              55.25529 ( 98.670% of  56)
  -----------------------------------------------------
   Valence non-Lewis         0.63384 (  1.132% of  56)
   Rydberg non-Lewis         0.11086 (  0.198% of  56)
  ==================      =============================
   Total non-Lewis           0.74471 (  1.330% of  56)
 -------------------------------------------------------


     (Occupancy)   Bond orbital / Coefficients / Hybrids
 ------------------ Lewis ------------------------------------------------------
   1. (1.99925) CR ( 1) C  1            s(100.00%)
                                         1.0000  0.0000  0.0000  0.0000  0.0000
                                         0.0000  0.0000  0.0000  0.0000  0.0000
                                         0.0000  0.0000  0.0000  0.0000
   2. (1.99921) CR ( 1) N  2            s(100.00%)
                                         1.0000  0.0000  0.0000  0.0000  0.0000
                                         0.0000  0.0000  0.0000  0.0000  0.0000
                                         0.0000  0.0000  0.0000  0.0000
   3. (1.99910) CR ( 1) C  3            s(100.00%)
                                         1.0000  0.0000  0.0000  0.0000  0.0000
                                         0.0000  0.0000  0.0000  0.0000  0.0000
                                         0.0000  0.0000  0.0000  0.0000
   4. (1.99915) CR ( 1) N  4            s(100.00%)
                                         1.0000  0.0000  0.0000  0.0000  0.0000
                                         0.0000  0.0000  0.0000  0.0000  0.0000
                                         0.0000  0.0000  0.0000  0.0000
   5. (1.99900) CR ( 1) C  5            s(100.00%)
                                         1.0000  0.0000  0.0000  0.0000  0.0000
                                         0.0000  0.0000  0.0000  0.0000  0.0000
                                         0.0000  0.0000  0.0000  0.0000
   6. (1.99917) CR ( 1) C  6            s(100.00%)
                                         1.0000  0.0000  0.0000  0.0000  0.0000
                                         0.0000  0.0000  0.0000  0.0000  0.0000
                                         0.0000  0.0000  0.0000  0.0000
   7. (1.99917) CR ( 1) C  7            s(100.00%)
                                         1.0000  0.0000  0.0000  0.0000  0.0000
                                         0.0000  0.0000  0.0000  0.0000  0.0000
                                         0.0000  0.0000  0.0000  0.0000
   8. (1.87669) LP ( 1) N  2            s( 28.62%)p 2.49( 71.29%)d 0.00(  0.09%)
                                         0.0000  0.5343 -0.0268  0.1121  0.0067
                                         0.5536  0.0219  0.6270  0.0148 -0.0024
                                        -0.0053 -0.0253  0.0089 -0.0111
   9. (1.71323) LP ( 1) N  4            s(  0.00%)p 1.00( 99.99%)d 0.00(  0.01%)
                                         0.0000  0.0013  0.0010  0.8867  0.0193
                                        -0.4128 -0.0062  0.2068  0.0021 -0.0046
                                        -0.0002 -0.0016 -0.0055  0.0002
  10. (1.98062) BD ( 1) C  1- N  2
               ( 40.45%)   0.6360* C  1 s( 26.33%)p 2.79( 73.56%)d 0.00(  0.11%)
                                         0.0000  0.5128  0.0181  0.3892  0.0106
                                         0.7336  0.0325 -0.2109  0.0158  0.0224
                                        -0.0063 -0.0118 -0.0153 -0.0133
               ( 59.55%)   0.7717* N  2 s( 30.68%)p 2.26( 69.23%)d 0.00(  0.09%)
                                         0.0000  0.5537  0.0115 -0.3795  0.0066
                                        -0.7062 -0.0011  0.2209 -0.0289  0.0201
                                         0.0008  0.0038 -0.0180 -0.0132
  11. (1.98298) BD ( 1) C  1- H  8
               ( 60.77%)   0.7796* C  1 s( 24.15%)p 3.14( 75.80%)d 0.00(  0.04%)
                                         0.0000  0.4915 -0.0003  0.4629 -0.0051
                                        -0.4132  0.0017  0.6107 -0.0041 -0.0093
                                         0.0128 -0.0108  0.0018  0.0057
               ( 39.23%)   0.6263* H  8 s( 99.91%)p 0.00(  0.09%)
                                         0.9995 -0.0038 -0.0158  0.0145 -0.0215
  12. (1.99603) BD ( 1) C  1- H  9
               ( 59.56%)   0.7718* C  1 s( 25.36%)p 2.94( 74.60%)d 0.00(  0.04%)
                                         0.0000  0.5034 -0.0130 -0.0756 -0.0096
                                        -0.5100 -0.0102 -0.6926  0.0167  0.0012
                                         0.0032  0.0171 -0.0057  0.0088
               ( 40.44%)   0.6359* H  9 s( 99.91%)p 0.00(  0.09%)
                                         0.9995 -0.0096  0.0035  0.0194  0.0221
  13. (1.98297) BD ( 1) C  1- H 10
               ( 60.80%)   0.7797* C  1 s( 24.17%)p 3.14( 75.79%)d 0.00(  0.04%)
                                         0.0000  0.4917  0.0008 -0.7921  0.0062
                                         0.1688 -0.0036  0.3192 -0.0023 -0.0070
                                        -0.0108  0.0027  0.0136 -0.0047
               ( 39.20%)   0.6261* H 10 s( 99.90%)p 0.00(  0.10%)
                                         0.9995 -0.0039  0.0284 -0.0059 -0.0119
  14. (1.98764) BD ( 1) N  2- C  3
               ( 59.36%)   0.7705* N  2 s( 40.81%)p 1.45( 59.07%)d 0.00(  0.12%)
                                         0.0000  0.6382  0.0281  0.2382 -0.0120
                                         0.1478 -0.0179 -0.7151  0.0185  0.0014
                                        -0.0142 -0.0016  0.0007  0.0319
               ( 40.64%)   0.6375* C  3 s( 37.07%)p 1.69( 62.82%)d 0.00(  0.10%)
                                         0.0000  0.6080  0.0330 -0.2173 -0.0034
                                        -0.0968  0.0119  0.7552  0.0350  0.0022
                                        -0.0132 -0.0017  0.0000  0.0291
  15. (1.96977) BD ( 2) N  2- C  3
               ( 60.62%)   0.7786* N  2 s(  0.00%)p 1.00( 99.84%)d 0.00(  0.16%)
                                         0.0000  0.0021  0.0010 -0.8859  0.0087
                                         0.4127 -0.0054 -0.2077  0.0038  0.0135
                                         0.0321 -0.0123  0.0042  0.0133
               ( 39.38%)   0.6275* C  3 s(  0.00%)p 1.00( 99.85%)d 0.00(  0.15%)
                                         0.0000  0.0015  0.0003 -0.8871  0.0264
                                         0.4114 -0.0083 -0.2037  0.0025  0.0005
                                        -0.0306  0.0167  0.0125 -0.0131
  16. (1.98462) BD ( 1) C  3- N  4
               ( 37.17%)   0.6097* C  3 s( 30.62%)p 2.26( 69.24%)d 0.00(  0.14%)
                                         0.0000  0.5525  0.0298  0.3809  0.0086
                                         0.6966  0.0231 -0.2478  0.0083  0.0259
                                        -0.0091 -0.0143 -0.0171 -0.0116
               ( 62.83%)   0.7926* N  4 s( 37.89%)p 1.64( 62.06%)d 0.00(  0.04%)
                                         0.0000  0.6154  0.0143 -0.3635  0.0075
                                        -0.6479  0.0093  0.2612 -0.0167  0.0150
                                        -0.0060 -0.0071 -0.0102 -0.0039
  17. (1.98198) BD ( 1) C  3- H 11
               ( 58.79%)   0.7668* C  3 s( 32.41%)p 2.08( 67.55%)d 0.00(  0.04%)
                                         0.0000  0.5679 -0.0395 -0.1359  0.0006
                                        -0.5769  0.0060 -0.5693  0.0094  0.0013
                                         0.0034  0.0173 -0.0058  0.0080
               ( 41.21%)   0.6419* H 11 s( 99.90%)p 0.00(  0.10%)
                                         0.9994 -0.0160  0.0060  0.0232  0.0203
  18. (1.98233) BD ( 1) N  4- C  5
               ( 62.03%)   0.7876* N  4 s( 36.57%)p 1.73( 63.39%)d 0.00(  0.03%)
                                         0.0000  0.6048 -0.0031  0.2384 -0.0020
                                         0.1398 -0.0070 -0.7466 -0.0072  0.0047
                                        -0.0084 -0.0016 -0.0026  0.0151
               ( 37.97%)   0.6162* C  5 s( 22.65%)p 3.41( 77.23%)d 0.01(  0.12%)
                                         0.0000  0.4758  0.0129 -0.2513 -0.0034
                                        -0.1229  0.0021  0.8328  0.0214  0.0030
                                        -0.0166 -0.0080  0.0014  0.0296
  19. (1.98315) BD ( 1) N  4- H 12
               ( 70.83%)   0.8416* N  4 s( 25.46%)p 2.93( 74.51%)d 0.00(  0.03%)
                                         0.0000  0.5045 -0.0058  0.1555 -0.0020
                                         0.6240 -0.0103  0.5755 -0.0124  0.0050
                                         0.0022  0.0148 -0.0081  0.0055
               ( 29.17%)   0.5401* H 12 s( 99.79%)p 0.00(  0.21%)
                                         0.9989 -0.0124 -0.0065 -0.0309 -0.0339
  20. (1.97994) BD ( 1) C  5- C  6
               ( 50.64%)   0.7116* C  5 s( 27.80%)p 2.60( 72.16%)d 0.00(  0.03%)
                                         0.0000  0.5273  0.0056 -0.4103 -0.0122
                                         0.6683 -0.0117 -0.3260 -0.0054 -0.0127
                                         0.0055 -0.0086 -0.0069 -0.0060
               ( 49.36%)   0.7026* C  6 s( 30.35%)p 2.29( 69.62%)d 0.00(  0.04%)
                                         0.0000  0.5509  0.0008  0.3935 -0.0084
                                        -0.6574 -0.0033  0.3303 -0.0016 -0.0122
                                         0.0068 -0.0103 -0.0064 -0.0045
  21. (1.98018) BD ( 1) C  5- C  7
               ( 50.68%)   0.7119* C  5 s( 27.83%)p 2.59( 72.14%)d 0.00(  0.03%)
                                         0.0000  0.5275  0.0053  0.8442  0.0006
                                         0.0854 -0.0172 -0.0337 -0.0025  0.0038
                                         0.0001  0.0004  0.0157 -0.0092
               ( 49.32%)   0.7023* C  7 s( 30.34%)p 2.29( 69.62%)d 0.00(  0.04%)
                                         0.0000  0.5508  0.0011 -0.8283  0.0019
                                        -0.0894 -0.0089  0.0463  0.0015  0.0029
                                        -0.0023  0.0003  0.0158 -0.0093
  22. (1.96287) BD ( 1) C  5- H 13
               ( 61.72%)   0.7856* C  5 s( 21.75%)p 3.60( 78.21%)d 0.00(  0.04%)
                                         0.0000  0.4661 -0.0173 -0.2348  0.0068
                                        -0.7278  0.0144 -0.4439 -0.0012  0.0080
                                         0.0042  0.0124 -0.0104 -0.0039
               ( 38.28%)   0.6187* H 13 s( 99.87%)p 0.00(  0.13%)
                                         0.9994 -0.0063  0.0082  0.0281  0.0199
  23. (1.98683) BD ( 1) C  6- H 14
               ( 61.03%)   0.7812* C  6 s( 22.92%)p 3.36( 77.04%)d 0.00(  0.04%)
                                         0.0000  0.4787 -0.0014  0.1900 -0.0119
                                         0.7356  0.0105  0.4392 -0.0096  0.0069
                                         0.0049  0.0142 -0.0104 -0.0016
               ( 38.97%)   0.6243* H 14 s( 99.90%)p 0.00(  0.10%)
                                         0.9995 -0.0021 -0.0051 -0.0272 -0.0141
  24. (1.98669) BD ( 1) C  6- H 15
               ( 61.60%)   0.7849* C  6 s( 23.44%)p 3.26( 76.53%)d 0.00(  0.03%)
                                         0.0000  0.4841  0.0025 -0.8683  0.0023
                                        -0.1036  0.0122  0.0213 -0.0057  0.0048
                                        -0.0014 -0.0004  0.0152 -0.0091
               ( 38.40%)   0.6197* H 15 s( 99.90%)p 0.00(  0.10%)
                                         0.9995 -0.0009  0.0321  0.0033 -0.0012
  25. (1.98457) BD ( 1) C  6- H 16
               ( 61.33%)   0.7831* C  6 s( 23.25%)p 3.30( 76.72%)d 0.00(  0.04%)
                                         0.0000  0.4822  0.0007  0.2335 -0.0116
                                         0.1242  0.0106 -0.8348 -0.0027  0.0009
                                        -0.0098 -0.0033  0.0011  0.0160
               ( 38.67%)   0.6219* H 16 s( 99.90%)p 0.00(  0.10%)
                                         0.9995 -0.0012 -0.0071 -0.0053  0.0304
  26. (1.98685) BD ( 1) C  7- H 17
               ( 61.01%)   0.7811* C  7 s( 22.91%)p 3.36( 77.05%)d 0.00(  0.04%)
                                         0.0000  0.4787 -0.0019  0.2683  0.0189
                                         0.6993 -0.0042  0.4573 -0.0029  0.0072
                                         0.0042  0.0147 -0.0099 -0.0019
               ( 38.99%)   0.6244* H 17 s( 99.91%)p 0.00(  0.09%)
                                         0.9995 -0.0021 -0.0110 -0.0241 -0.0155
  27. (1.98463) BD ( 1) C  7- H 18
               ( 61.29%)   0.7829* C  7 s( 23.25%)p 3.30( 76.71%)d 0.00(  0.04%)
                                         0.0000  0.4822  0.0002  0.2624  0.0166
                                         0.1105 -0.0020 -0.8281  0.0042  0.0013
                                        -0.0077 -0.0043  0.0009  0.0168
               ( 38.71%)   0.6221* H 18 s( 99.90%)p 0.00(  0.10%)
                                         0.9995 -0.0012 -0.0106 -0.0039  0.0296
  28. (1.98666) BD ( 1) C  7- H 19
               ( 61.58%)   0.7847* C  7 s( 23.44%)p 3.26( 76.52%)d 0.00(  0.04%)
                                         0.0000  0.4841  0.0033  0.4152  0.0106
                                        -0.7001  0.0094  0.3201 -0.0044 -0.0118
                                         0.0053 -0.0104 -0.0077 -0.0056
               ( 38.42%)   0.6198* H 19 s( 99.91%)p 0.00(  0.09%)
                                         0.9995 -0.0009 -0.0146  0.0245 -0.0116
 ---------------- non-Lewis ----------------------------------------------------
  29. (0.00650) BD*( 1) C  1- N  2
               ( 59.55%)   0.7717* C  1 s( 26.33%)p 2.79( 73.56%)d 0.00(  0.11%)
                                         0.0000  0.5128  0.0181  0.3892  0.0106
                                         0.7336  0.0325 -0.2109  0.0158  0.0224
                                        -0.0063 -0.0118 -0.0153 -0.0133
               ( 40.45%)  -0.6360* N  2 s( 30.68%)p 2.26( 69.23%)d 0.00(  0.09%)
                                         0.0000  0.5537  0.0115 -0.3795  0.0066
                                        -0.7062 -0.0011  0.2209 -0.0289  0.0201
                                         0.0008  0.0038 -0.0180 -0.0132
  30. (0.01663) BD*( 1) C  1- H  8
               ( 39.23%)   0.6263* C  1 s( 24.15%)p 3.14( 75.80%)d 0.00(  0.04%)
                                         0.0000 -0.4915  0.0003 -0.4629  0.0051
                                         0.4132 -0.0017 -0.6107  0.0041  0.0093
                                        -0.0128  0.0108 -0.0018 -0.0057
               ( 60.77%)  -0.7796* H  8 s( 99.91%)p 0.00(  0.09%)
                                        -0.9995  0.0038  0.0158 -0.0145  0.0215
  31. (0.02771) BD*( 1) C  1- H  9
               ( 40.44%)   0.6359* C  1 s( 25.36%)p 2.94( 74.60%)d 0.00(  0.04%)
                                         0.0000 -0.5034  0.0130  0.0756  0.0096
                                         0.5100  0.0102  0.6926 -0.0167 -0.0012
                                        -0.0032 -0.0171  0.0057 -0.0088
               ( 59.56%)  -0.7718* H  9 s( 99.91%)p 0.00(  0.09%)
                                        -0.9995  0.0096 -0.0035 -0.0194 -0.0221
  32. (0.01669) BD*( 1) C  1- H 10
               ( 39.20%)   0.6261* C  1 s( 24.17%)p 3.14( 75.79%)d 0.00(  0.04%)
                                         0.0000 -0.4917 -0.0008  0.7921 -0.0062
                                        -0.1688  0.0036 -0.3192  0.0023  0.0070
                                         0.0108 -0.0027 -0.0136  0.0047
               ( 60.80%)  -0.7797* H 10 s( 99.90%)p 0.00(  0.10%)
                                        -0.9995  0.0039 -0.0284  0.0059  0.0119
  33. (0.01054) BD*( 1) N  2- C  3
               ( 40.64%)   0.6375* N  2 s( 40.81%)p 1.45( 59.07%)d 0.00(  0.12%)
                                         0.0000 -0.6382 -0.0281 -0.2382  0.0120
                                        -0.1478  0.0179  0.7151 -0.0185 -0.0014
                                         0.0142  0.0016 -0.0007 -0.0319
               ( 59.36%)  -0.7705* C  3 s( 37.07%)p 1.69( 62.82%)d 0.00(  0.10%)
                                         0.0000 -0.6080 -0.0330  0.2173  0.0034
                                         0.0968 -0.0119 -0.7552 -0.0350 -0.0022
                                         0.0132  0.0017  0.0000 -0.0291
  34. (0.26886) BD*( 2) N  2- C  3
               ( 39.38%)   0.6275* N  2 s(  0.00%)p 1.00( 99.84%)d 0.00(  0.16%)
                                         0.0000  0.0021  0.0010 -0.8859  0.0087
                                         0.4127 -0.0054 -0.2077  0.0038  0.0135
                                         0.0321 -0.0123  0.0042  0.0133
               ( 60.62%)  -0.7786* C  3 s(  0.00%)p 1.00( 99.85%)d 0.00(  0.15%)
                                         0.0000  0.0015  0.0003 -0.8871  0.0264
                                         0.4114 -0.0083 -0.2037  0.0025  0.0005
                                        -0.0306  0.0167  0.0125 -0.0131
  35. (0.03935) BD*( 1) C  3- N  4
               ( 62.83%)   0.7926* C  3 s( 30.62%)p 2.26( 69.24%)d 0.00(  0.14%)
                                         0.0000  0.5525  0.0298  0.3809  0.0086
                                         0.6966  0.0231 -0.2478  0.0083  0.0259
                                        -0.0091 -0.0143 -0.0171 -0.0116
               ( 37.17%)  -0.6097* N  4 s( 37.89%)p 1.64( 62.06%)d 0.00(  0.04%)
                                         0.0000  0.6154  0.0143 -0.3635  0.0075
                                        -0.6479  0.0093  0.2612 -0.0167  0.0150
                                        -0.0060 -0.0071 -0.0102 -0.0039
  36. (0.05749) BD*( 1) C  3- H 11
               ( 41.21%)   0.6419* C  3 s( 32.41%)p 2.08( 67.55%)d 0.00(  0.04%)
                                         0.0000 -0.5679  0.0395  0.1359 -0.0006
                                         0.5769 -0.0060  0.5693 -0.0094 -0.0013
                                        -0.0034 -0.0173  0.0058 -0.0080
               ( 58.79%)  -0.7668* H 11 s( 99.90%)p 0.00(  0.10%)
                                        -0.9994  0.0160 -0.0060 -0.0232 -0.0203
  37. (0.03652) BD*( 1) N  4- C  5
               ( 37.97%)   0.6162* N  4 s( 36.57%)p 1.73( 63.39%)d 0.00(  0.03%)
                                         0.0000 -0.6048  0.0031 -0.2384  0.0020
                                        -0.1398  0.0070  0.7466  0.0072 -0.0047
                                         0.0084  0.0016  0.0026 -0.0151
               ( 62.03%)  -0.7876* C  5 s( 22.65%)p 3.41( 77.23%)d 0.01(  0.12%)
                                         0.0000 -0.4758 -0.0129  0.2513  0.0034
                                         0.1229 -0.0021 -0.8328 -0.0214 -0.0030
                                         0.0166  0.0080 -0.0014 -0.0296
  38. (0.02624) BD*( 1) N  4- H 12
               ( 29.17%)   0.5401* N  4 s( 25.46%)p 2.93( 74.51%)d 0.00(  0.03%)
                                         0.0000 -0.5045  0.0058 -0.1555  0.0020
                                        -0.6240  0.0103 -0.5755  0.0124 -0.0050
                                        -0.0022 -0.0148  0.0081 -0.0055
               ( 70.83%)  -0.8416* H 12 s( 99.79%)p 0.00(  0.21%)
                                        -0.9989  0.0124  0.0065  0.0309  0.0339
  39. (0.02709) BD*( 1) C  5- C  6
               ( 49.36%)   0.7026* C  5 s( 27.80%)p 2.60( 72.16%)d 0.00(  0.03%)
                                         0.0000 -0.5273 -0.0056  0.4103  0.0122
                                        -0.6683  0.0117  0.3260  0.0054  0.0127
                                        -0.0055  0.0086  0.0069  0.0060
               ( 50.64%)  -0.7116* C  6 s( 30.35%)p 2.29( 69.62%)d 0.00(  0.04%)
                                         0.0000 -0.5509 -0.0008 -0.3935  0.0084
                                         0.6574  0.0033 -0.3303  0.0016  0.0122
                                        -0.0068  0.0103  0.0064  0.0045
  40. (0.02703) BD*( 1) C  5- C  7
               ( 49.32%)   0.7023* C  5 s( 27.83%)p 2.59( 72.14%)d 0.00(  0.03%)
                                         0.0000 -0.5275 -0.0053 -0.8442 -0.0006
                                        -0.0854  0.0172  0.0337  0.0025 -0.0038
                                        -0.0001 -0.0004 -0.0157  0.0092
               ( 50.68%)  -0.7119* C  7 s( 30.34%)p 2.29( 69.62%)d 0.00(  0.04%)
                                         0.0000 -0.5508 -0.0011  0.8283 -0.0019
                                         0.0894  0.0089 -0.0463 -0.0015 -0.0029
                                         0.0023 -0.0003 -0.0158  0.0093
  41. (0.02641) BD*( 1) C  5- H 13
               ( 38.28%)   0.6187* C  5 s( 21.75%)p 3.60( 78.21%)d 0.00(  0.04%)
                                         0.0000 -0.4661  0.0173  0.2348 -0.0068
                                         0.7278 -0.0144  0.4439  0.0012 -0.0080
                                        -0.0042 -0.0124  0.0104  0.0039
               ( 61.72%)  -0.7856* H 13 s( 99.87%)p 0.00(  0.13%)
                                        -0.9994  0.0063 -0.0082 -0.0281 -0.0199
  42. (0.00965) BD*( 1) C  6- H 14
               ( 38.97%)   0.6243* C  6 s( 22.92%)p 3.36( 77.04%)d 0.00(  0.04%)
                                         0.0000 -0.4787  0.0014 -0.1900  0.0119
                                        -0.7356 -0.0105 -0.4392  0.0096 -0.0069
                                        -0.0049 -0.0142  0.0104  0.0016
               ( 61.03%)  -0.7812* H 14 s( 99.90%)p 0.00(  0.10%)
                                        -0.9995  0.0021  0.0051  0.0272  0.0141
  43. (0.00643) BD*( 1) C  6- H 15
               ( 38.40%)   0.6197* C  6 s( 23.44%)p 3.26( 76.53%)d 0.00(  0.03%)
                                         0.0000 -0.4841 -0.0025  0.8683 -0.0023
                                         0.1036 -0.0122 -0.0213  0.0057 -0.0048
                                         0.0014  0.0004 -0.0152  0.0091
               ( 61.60%)  -0.7849* H 15 s( 99.90%)p 0.00(  0.10%)
                                        -0.9995  0.0009 -0.0321 -0.0033  0.0012
  44. (0.00733) BD*( 1) C  6- H 16
               ( 38.67%)   0.6219* C  6 s( 23.25%)p 3.30( 76.72%)d 0.00(  0.04%)
                                         0.0000 -0.4822 -0.0007 -0.2335  0.0116
                                        -0.1242 -0.0106  0.8348  0.0027 -0.0009
                                         0.0098  0.0033 -0.0011 -0.0160
               ( 61.33%)  -0.7831* H 16 s( 99.90%)p 0.00(  0.10%)
                                        -0.9995  0.0012  0.0071  0.0053 -0.0304
  45. (0.00967) BD*( 1) C  7- H 17
               ( 38.99%)   0.6244* C  7 s( 22.91%)p 3.36( 77.05%)d 0.00(  0.04%)
                                         0.0000 -0.4787  0.0019 -0.2683 -0.0189
                                        -0.6993  0.0042 -0.4573  0.0029 -0.0072
                                        -0.0042 -0.0147  0.0099  0.0019
               ( 61.01%)  -0.7811* H 17 s( 99.91%)p 0.00(  0.09%)
                                        -0.9995  0.0021  0.0110  0.0241  0.0155
  46. (0.00729) BD*( 1) C  7- H 18
               ( 38.71%)   0.6221* C  7 s( 23.25%)p 3.30( 76.71%)d 0.00(  0.04%)
                                         0.0000 -0.4822 -0.0002 -0.2624 -0.0166
                                        -0.1105  0.0020  0.8281 -0.0042 -0.0013
                                         0.0077  0.0043 -0.0009 -0.0168
               ( 61.29%)  -0.7829* H 18 s( 99.90%)p 0.00(  0.10%)
                                        -0.9995  0.0012  0.0106  0.0039 -0.0296
  47. (0.00643) BD*( 1) C  7- H 19
               ( 38.42%)   0.6198* C  7 s( 23.44%)p 3.26( 76.52%)d 0.00(  0.04%)
                                         0.0000 -0.4841 -0.0033 -0.4152 -0.0106
                                         0.7001 -0.0094 -0.3201  0.0044  0.0118
                                        -0.0053  0.0104  0.0077  0.0056
               ( 61.58%)  -0.7847* H 19 s( 99.91%)p 0.00(  0.09%)
                                        -0.9995  0.0009  0.0146 -0.0245  0.0116
  48. (0.00440) RY ( 1) C  1            s( 23.24%)p 2.43( 56.55%)d 0.87( 20.21%)
                                         0.0000  0.0046  0.4821 -0.0042  0.2441
                                        -0.0201  0.2625 -0.0216 -0.6604 -0.0432
                                        -0.1960 -0.3377  0.1149  0.1861
  49. (0.00133) RY ( 2) C  1            s(  1.64%)p57.34( 94.26%)d 2.49(  4.10%)
                                         0.0000 -0.0164  0.1272 -0.0179  0.1616
                                        -0.0299  0.7628  0.0061  0.5774 -0.0597
                                        -0.0471 -0.1806 -0.0168  0.0485
  50. (0.00120) RY ( 3) C  1            s(  0.02%)p99.99( 20.83%)d99.99( 79.16%)
                                         0.0000 -0.0011  0.0124  0.0141  0.4220
                                        -0.0108 -0.1012  0.0031  0.1402  0.4545
                                        -0.2562  0.2353  0.6739 -0.0994
  51. (0.00018) RY ( 4) C  1            s(  2.04%)p 9.95( 20.31%)d38.04( 77.65%)
                                         0.0000 -0.0029  0.1429 -0.0102  0.1363
                                        -0.0192  0.3354  0.0091 -0.2674  0.3355
                                         0.2828  0.5181 -0.3469 -0.4418
  52. (0.00009) RY ( 5) C  1            s(  0.13%)p99.99( 77.91%)d99.99( 21.96%)
  53. (0.00002) RY ( 6) C  1            s( 39.86%)p 0.22(  8.94%)d 1.28( 51.20%)
  54. (0.00000) RY ( 7) C  1            s(  9.05%)p 1.39( 12.60%)d 8.65( 78.35%)
  55. (0.00000) RY ( 8) C  1            s( 24.00%)p 0.31(  7.43%)d 2.86( 68.57%)
  56. (0.00000) RY ( 9) C  1            s(  0.00%)p 1.00(  1.43%)d69.15( 98.57%)
  57. (0.00396) RY ( 1) N  2            s( 15.74%)p 5.07( 79.78%)d 0.28(  4.48%)
                                         0.0000 -0.0067  0.3967  0.0040 -0.2697
                                         0.0228 -0.7650  0.0321 -0.3717  0.0467
                                        -0.0915 -0.1842  0.0172  0.0014
  58. (0.00163) RY ( 2) N  2            s(  0.01%)p99.99( 96.17%)d99.99(  3.81%)
                                         0.0000 -0.0009  0.0112  0.0048  0.8183
                                        -0.0054 -0.4390  0.0046  0.3150  0.0751
                                        -0.0899  0.0876  0.1130 -0.0630
  59. (0.00117) RY ( 3) N  2            s(  0.14%)p99.99( 94.84%)d34.89(  5.01%)
                                         0.0000 -0.0016  0.0379 -0.0117 -0.4511
                                        -0.0185 -0.2543  0.0196  0.8243  0.0483
                                         0.1023  0.0859 -0.1141 -0.1301
  60. (0.00031) RY ( 4) N  2            s(  7.06%)p 0.75(  5.30%)d12.41( 87.64%)
                                         0.0000 -0.0044  0.2657  0.0132  0.2050
                                        -0.0077  0.0409  0.0113  0.0943 -0.3595
                                         0.4109 -0.4320 -0.5594  0.2805
  61. (0.00024) RY ( 5) N  2            s( 58.15%)p 0.29( 16.91%)d 0.43( 24.94%)
                                         0.0000 -0.0130  0.7624 -0.0130  0.0348
                                        -0.0036  0.3505  0.0240  0.2106  0.0384
                                        -0.3182 -0.0853  0.3306  0.1733
  62. (0.00011) RY ( 6) N  2            s( 12.74%)p 0.44(  5.63%)d 6.41( 81.63%)
                                         0.0000  0.0004  0.3570  0.0178  0.1021
                                         0.0316  0.1635 -0.0167 -0.1324  0.3897
                                         0.2086  0.1644 -0.3676 -0.6773
  63. (0.00002) RY ( 7) N  2            s(  0.81%)p 0.11(  0.09%)d99.99( 99.10%)
  64. (0.00001) RY ( 8) N  2            s(  5.24%)p 0.33(  1.71%)d17.77( 93.05%)
  65. (0.00000) RY ( 9) N  2            s(  0.00%)p 1.00(  0.13%)d99.99( 99.87%)
  66. (0.00717) RY ( 1) C  3            s( 61.69%)p 0.24( 14.85%)d 0.38( 23.46%)
                                         0.0000 -0.0259  0.7850 -0.0139 -0.0492
                                        -0.0461  0.0634 -0.0374  0.3719  0.1936
                                        -0.1241 -0.3676 -0.0617 -0.2069
  67. (0.00549) RY ( 2) C  3            s(  8.20%)p10.35( 84.89%)d 0.84(  6.91%)
                                         0.0000  0.0299  0.2848 -0.0045 -0.0679
                                        -0.0124 -0.5166 -0.0013 -0.7597  0.0351
                                        -0.1269 -0.2171  0.0413  0.0544
  68. (0.00311) RY ( 3) C  3            s(  0.02%)p99.99( 10.71%)d99.99( 89.27%)
                                         0.0000 -0.0007  0.0153 -0.0361 -0.2461
                                         0.0153  0.1865 -0.0087 -0.1003 -0.3360
                                         0.4820 -0.3822 -0.5847  0.2438
  69. (0.00153) RY ( 4) C  3            s(  2.57%)p33.95( 87.26%)d 3.96( 10.17%)
                                         0.0000 -0.0079  0.1601 -0.0076 -0.0915
                                        -0.0134  0.8168 -0.0040 -0.4436  0.0047
                                        -0.1928  0.0276  0.2366  0.0881
  70. (0.00138) RY ( 5) C  3            s(  0.92%)p99.63( 91.97%)d 7.70(  7.11%)
                                         0.0000 -0.0043  0.0960  0.0110  0.9531
                                        -0.0161  0.0765  0.0020 -0.0705 -0.1233
                                         0.0721 -0.1443 -0.0734  0.1566
  71. (0.00028) RY ( 6) C  3            s( 17.14%)p 0.29(  5.01%)d 4.54( 77.85%)
                                         0.0000 -0.0116  0.4139  0.0125 -0.0882
                                         0.0121 -0.1294 -0.0328  0.1555 -0.3023
                                         0.0135  0.4693  0.1372  0.6692
  72. (0.00018) RY ( 7) C  3            s(  7.56%)p 0.75(  5.65%)d11.48( 86.79%)
                                         0.0000  0.0023  0.2749 -0.0068  0.0825
                                        -0.0112  0.0497  0.0138 -0.2165  0.2218
                                         0.3534  0.6379 -0.3836 -0.3738
  73. (0.00001) RY ( 8) C  3            s(  1.79%)p 0.09(  0.16%)d54.66( 98.04%)
  74. (0.00000) RY ( 9) C  3            s(  0.00%)p 1.00(  0.05%)d99.99( 99.95%)
  75. (0.00470) RY ( 1) N  4            s(  0.00%)p 1.00( 98.90%)d 0.01(  1.10%)
                                         0.0000 -0.0017  0.0064  0.0180 -0.8379
                                        -0.0066  0.4676  0.0037 -0.2605 -0.0322
                                        -0.0882  0.0394  0.0028 -0.0242
  76. (0.00254) RY ( 2) N  4            s( 56.33%)p 0.63( 35.42%)d 0.15(  8.25%)
                                         0.0000 -0.0110  0.7505  0.0033 -0.1647
                                         0.0071 -0.4788  0.0002 -0.3127  0.0226
                                        -0.1177 -0.2554  0.0534  0.0082
  77. (0.00191) RY ( 3) N  4            s( 18.17%)p 4.29( 77.92%)d 0.22(  3.91%)
[...]
  4 C                -0.1      -0.0      -4.4     -18.0     -41.3      -6.7
  5 C                -0.0      -0.0      -1.3       0.2       1.1       0.1
  6 C                -0.0      -0.0      -1.1       0.2       1.1       0.0
  8 H                 0.0      -0.0      -0.0      -0.0      -0.0      -0.1
 10 H                -1.9      -2.7      -0.1      -0.3      -0.1      -0.7
 11 H                -0.1      -0.1      -0.9     -14.6      -2.6      -0.2
 12 H                -0.0      -0.0      -0.1      -0.3       1.0      -0.1
 15 H                -0.0      -0.0      -0.0      -0.1      -0.2      -0.0
 17 H                -0.0      -0.0      -0.0      -0.1      -0.2      -0.0

                     78        79        80        81        82        83   
                   0.00000   0.00000   0.00000   0.00000   0.00000   0.00000
                   0.00040   0.00015   0.00007   0.00003   0.00001   0.00544
                  --------  --------  --------  --------  --------  --------
  0 C                -0.0      -0.0       0.0      -0.0      -0.0      -0.2
  1 N                -0.0      -0.3       0.4      -0.0      -0.0      -0.8
  2 C                -1.4      -3.0      -6.4      -1.1      -0.4     -10.9
  3 N               102.6     112.1     111.9     102.8     103.7     -11.8
  4 C                -0.9      -2.8      -1.6      -0.4      -0.6     160.8
  5 C                -0.1       0.1       0.0      -0.1      -0.0      -5.7
  6 C                -0.1       0.1      -0.0      -0.1       0.0      -5.6
 10 H                -0.0       0.1      -0.1       0.0      -0.0       0.5
 11 H                -0.0      -6.3      -4.2      -1.0      -2.5      -0.2
 12 H                -0.1       0.1      -0.1      -0.0      -0.1     -26.1
 15 H                -0.0      -0.0       0.0      -0.0      -0.0      -0.1
 17 H                -0.0      -0.0       0.0      -0.0      -0.0      -0.1

                     84        85        86        87        88        89   
                   0.00000   0.00000   0.00000   0.00000   0.00000   0.00000
                   0.00203   0.00143   0.00135   0.00080   0.00048   0.00032
                  --------  --------  --------  --------  --------  --------
  1 N                -0.1      -0.1      -0.2      -0.0      -0.3       0.0
  2 C                -0.5      -0.6      -3.2      -0.1      -2.7       0.0
  3 N                -6.5      -2.7     -14.0      -0.4     -20.4       0.0
  4 C               160.4     115.1     156.2     102.7     172.8     103.9
  5 C               -27.6      -7.4     -10.6      -0.7     -23.2      -0.7
  6 C               -25.1      -2.6     -18.8      -0.7     -22.3      -0.6
 10 H                -0.0      -0.1      -0.7       0.0       0.2      -0.0
 11 H                -0.1      -0.0      -0.2       0.1      -1.1      -0.0
 12 H                 0.0      -1.3      -8.2      -0.5      -4.2      -2.4
 13 H                -0.3      -0.1      -0.2      -0.0       0.5      -0.2
 14 H                 0.2      -0.1      -0.1      -0.1       0.1       0.0
 15 H                -0.2       0.4      -0.2      -0.0       0.0       0.0
 16 H                -0.3      -0.1      -0.3      -0.0       0.6      -0.1
 17 H                -0.2      -0.4       0.6      -0.0       0.0      -0.0
 18 H                 0.2      -0.0      -0.1      -0.2       0.1       0.0

                     90        91        92        93        94        95   
                   0.00000   0.00000   0.00000   0.00000   0.00000   0.00000
                   0.00017   0.00007   0.00342   0.00185   0.00077   0.00020
                  --------  --------  --------  --------  --------  --------
  1 N                -0.1       0.0      -0.0      -0.0      -0.0      -0.0
  2 C                -1.4       1.5      -0.1       0.0       0.3      -0.1
  3 N               -22.9      -4.1      -0.3      -1.0       0.9      -0.2
  4 C               212.8     116.2     -14.1     -11.8     -76.7      -1.4
  5 C               -40.4      -2.0     143.7     136.2     190.4     148.1
  6 C               -40.9      -2.0      -5.8       0.0       0.6      -0.1
 10 H                -0.0      -0.1      -0.0      -0.0       0.0      -0.0
 11 H                -0.3      -0.3      -0.0      -0.2      -0.0       0.0
 12 H                -7.7      -9.3      -0.1      -0.3       0.8       0.1
 13 H                -0.3       0.0      -6.7     -11.8       0.1     -19.7
 14 H                 0.3       0.0      -8.9      -2.2     -10.4     -13.6
 15 H                 0.4       0.0      -7.6      -8.9      -5.6     -12.9
 16 H                -0.3       0.0       0.1       0.0       0.0      -0.0
 17 H                 0.4       0.0       0.1       0.0       0.0      -0.1
 18 H                 0.4       0.0      -0.3      -0.0      -0.2      -0.0

                     96        97        98        99       100       101   
                   0.00000   0.00000   0.00000   0.00000   0.00000   0.00000
                   0.00008   0.00002   0.00001   0.00001   0.00000   0.00340
                  --------  --------  --------  --------  --------  --------
  3 N                 0.3       0.1      -0.1      -0.0      -0.0      -0.3
  4 C                -2.9      -2.9      -2.8      -1.4      -0.7     -13.3
  5 C               118.7     109.2     112.9     109.2     115.0      -5.8
  6 C                -0.3       0.0       0.1      -0.1       0.1     143.1
 12 H                -0.3      -0.0       0.0       0.1       0.1      -0.1
 13 H                -2.4      -1.9      -3.7      -1.6      -5.3       0.1
 14 H                -2.0      -4.0      -4.8      -2.8      -6.6      -0.3
 15 H               -11.3      -0.5      -1.5      -3.3      -2.5       0.1
 16 H                -0.0       0.0      -0.0      -0.0      -0.0      -6.4
 17 H                -0.0       0.0      -0.0      -0.0      -0.0      -7.8
 18 H                -0.0       0.0      -0.0      -0.0      -0.0      -9.2

                    102       103       104       105       106       107   
                   0.00000   0.00000   0.00000   0.00000   0.00000   0.00000
                   0.00194   0.00078   0.00020   0.00007   0.00002   0.00001
                  --------  --------  --------  --------  --------  --------
  2 C                 0.0       0.3      -0.1       0.1      -0.0      -0.1
  3 N                -0.8       0.9      -0.2       0.4       0.1      -0.1
  4 C               -14.1     -75.8      -1.0      -2.9      -3.0      -2.5
  5 C                 0.0       0.6      -0.2      -0.2       0.0       0.1
  6 C               137.9     190.1     148.0     118.0     109.4     112.6
 11 H                -0.2      -0.0       0.0       0.0      -0.0      -0.0
 12 H                -0.3       0.8       0.1      -0.3       0.0      -0.0
 14 H                -0.0      -0.2      -0.0      -0.0      -0.0      -0.0
 16 H               -12.3       0.2     -19.7      -2.3      -1.8      -3.8
 17 H                -7.9      -6.5     -13.1     -10.9      -0.5      -1.5
 18 H                -2.3     -10.2     -13.6      -1.7      -4.0      -4.7

                    108       109       110       111       112       113   
                   0.00000   0.00000   0.00000   0.00000   0.00000   0.00000
                   0.00001   0.00000   0.00216   0.00019   0.00011   0.00001
                  --------  --------  --------  --------  --------  --------
  0 C                -0.0       0.0     -36.1      -2.9      -4.8      -6.4
  1 N                -0.0       0.0       0.4      -0.1       0.1      -0.2
  2 C                -0.0       0.0      -0.1      -0.2      -0.0      -0.0
  4 C                -1.8      -0.6       0.0      -0.0      -0.0      -0.0
  6 C               109.7     114.9      -0.0      -0.0      -0.0      -0.0
  7 H                -0.0      -0.0     136.4     103.9     105.5     106.9
  8 H                 0.0       0.0      -0.3      -0.3      -0.3      -0.1
  9 H                -0.0      -0.0      -0.4      -0.3      -0.4      -0.2
 12 H                 0.1       0.1      -0.0      -0.0      -0.0      -0.0
 16 H                -1.5      -5.2      -0.0      -0.0      -0.0      -0.0
 17 H                -3.3      -2.6      -0.0      -0.0      -0.0      -0.0
 18 H                -3.1      -6.5      -0.0      -0.0       0.0      -0.0

                    114       115       116       117       118       119   
                   0.00000   0.00000   0.00000   0.00000   0.00000   0.00000
                   0.00509   0.00020   0.00012   0.00001   0.00219   0.00018
                  --------  --------  --------  --------  --------  --------
  0 C               -33.2      -2.7      -3.8      -6.5     -36.3      -2.9
  1 N                -0.2      -0.1       0.0      -0.4       0.4      -0.1
  2 C                -0.7      -0.0      -0.2      -0.1      -0.1      -0.2
  7 H                -0.4      -0.3      -0.3      -0.1      -0.3      -0.3
  8 H               139.7     103.4     104.9     107.3      -0.3      -0.3
  9 H                -0.4      -0.3      -0.3      -0.1     136.6     103.9
 10 H                -4.6      -0.0      -0.1      -0.1       0.0      -0.0
 12 H                -0.1      -0.0       0.0      -0.0      -0.0      -0.0

                    120       121       122       123       124       125   
                   0.00000   0.00000   0.00000   0.00000   0.00000   0.00000
                   0.00011   0.00001   0.00668   0.00015   0.00005   0.00004
                  --------  --------  --------  --------  --------  --------
  0 C                -4.9      -6.5      -0.0      -0.0       0.0      -0.1
  1 N                 0.1      -0.2      -1.6      -0.1       0.1      -1.3
  2 C                -0.0      -0.0     -40.4      -2.7      -6.4      -4.6
  3 N                -0.0      -0.0      -0.6      -0.1      -0.6      -0.3
  4 C                -0.0      -0.0      -0.3      -0.0      -0.1      -0.1
  7 H                -0.4      -0.2      -0.0      -0.0      -0.0      -0.0
  8 H                -0.4      -0.1      -4.7      -0.0      -0.0      -0.1
  9 H               105.6     107.1      -0.0      -0.0      -0.0      -0.0
 10 H                -0.0      -0.0     152.9     102.9     107.0     106.7
 12 H                -0.0      -0.0      -5.2      -0.0       0.0      -0.1

                    126       127       128       129       130       131   
                   0.00000   0.00000   0.00000   0.00000   0.00000   0.00000
                   0.00619   0.00054   0.00012   0.00004   0.00378   0.00009
                  --------  --------  --------  --------  --------  --------
  1 N                -0.1      -0.0      -0.0      -0.0      -0.2      -0.0
  2 C                -4.3      -0.2      -0.4       0.0      -1.2      -0.0
  3 N                -7.0      -3.3      -3.6      -5.8       0.5      -0.3
  4 C                -1.5      -0.1      -0.3      -0.1     -34.9      -3.0
  5 C                -0.3      -0.0      -0.0      -0.0       0.2      -0.3
  6 C                -0.3      -0.0      -0.0      -0.0       0.2      -0.3
  8 H                 0.0      -0.0      -0.0      -0.0      -0.1      -0.0
 10 H                -0.1      -0.0      -0.1      -0.0      -5.0      -0.0
 11 H               115.1     103.8     104.5     106.1       0.0      -0.1
 12 H                -0.0      -0.1      -0.0      -0.0     141.6     104.0
 13 H                -0.8      -0.0      -0.0      -0.0      -0.1      -0.0
 14 H                -0.0      -0.0      -0.0       0.0      -0.3      -0.1
 15 H                -0.0      -0.0      -0.0      -0.0      -0.3      -0.0
 16 H                -0.8      -0.0      -0.0      -0.0      -0.1      -0.0
 17 H                -0.0      -0.0      -0.0      -0.0      -0.3      -0.0
 18 H                -0.0      -0.0      -0.0       0.0      -0.3      -0.1

                    132       133       134       135       136       137   
                   0.00000   0.00000   0.00000   0.00000   0.00000   0.00000
                   0.00007   0.00003   0.00208   0.00016   0.00012   0.00002
                  --------  --------  --------  --------  --------  --------
  3 N                -0.1      -0.5      -0.0      -0.0      -0.1      -0.0
  4 C                -4.4      -6.6       0.2      -0.1      -0.3      -0.1
  5 C                -0.2       0.0     -33.4      -2.9      -3.1      -7.8
  6 C                -0.2       0.0      -0.0      -0.0      -0.1      -0.0
 11 H                -0.0      -0.0      -0.8      -0.0      -0.0      -0.1
 12 H               105.4     107.1      -0.0      -0.1      -0.0      -0.0
 13 H                -0.1      -0.0     135.9     104.0     104.4     108.4
 14 H                -0.0      -0.0      -0.4      -0.3      -0.4      -0.1
 15 H                -0.1      -0.0      -0.2      -0.4      -0.4      -0.1
 16 H                -0.1      -0.0      -1.2      -0.0      -0.0      -0.1

                    138       139       140       141       142       143   
                   0.00000   0.00000   0.00000   0.00000   0.00000   0.00000
                   0.00195   0.00014   0.00011   0.00002   0.00163   0.00015
                  --------  --------  --------  --------  --------  --------
  2 C                -0.5      -0.0      -0.0      -0.0      -0.0      -0.0
  3 N                 0.1      -0.0      -0.1      -0.0      -0.2      -0.0
  4 C                 0.6      -0.2      -0.2      -0.2       0.6      -0.2
  5 C               -35.8      -2.9      -3.0      -8.1     -34.5      -2.9
  6 C                -0.4      -0.0      -0.0      -0.1       0.0      -0.0
 12 H                -0.3      -0.0      -0.1      -0.0      -0.3      -0.0
 13 H                -0.4      -0.4      -0.4      -0.1      -0.3      -0.4
 14 H               137.2     104.0     104.2     108.7      -0.3      -0.3
 15 H                -0.4      -0.3      -0.4      -0.1     136.7     103.9
 17 H                 0.0      -0.0      -0.0      -0.0      -1.7       0.0

                    144       145       146       147       148       149   
                   0.00000   0.00000   0.00000   0.00000   0.00000   0.00000
                   0.00011   0.00002   0.00210   0.00016   0.00012   0.00002
                  --------  --------  --------  --------  --------  --------
  4 C                -0.1      -0.2       0.3      -0.1      -0.3      -0.1
  5 C                -3.3      -7.9      -0.0      -0.0      -0.1      -0.0
  6 C                -0.0      -0.0     -33.3      -3.0      -3.0      -7.9
 11 H                -0.0      -0.0      -0.8      -0.0      -0.0      -0.1
 13 H                -0.4      -0.1      -1.2      -0.0      -0.0      -0.1
 14 H                -0.4      -0.1      -0.0      -0.0      -0.0      -0.0
 15 H               104.4     108.6      -0.0      -0.0      -0.0       0.0
 16 H                -0.0      -0.0     135.7     104.1     104.3     108.4
 17 H                -0.0      -0.1      -0.2      -0.4      -0.4      -0.1
 18 H                -0.0      -0.0      -0.3      -0.3      -0.4      -0.1

                    150       151       152       153       154       155   
                   0.00000   0.00000   0.00000   0.00000   0.00000   0.00000
                   0.00158   0.00016   0.00012   0.00002   0.00200   0.00015
                  --------  --------  --------  --------  --------  --------
  2 C                -0.0      -0.0      -0.0      -0.0      -0.5      -0.0
  3 N                -0.2      -0.0      -0.1      -0.1       0.1      -0.0
  4 C                 0.6      -0.2      -0.1      -0.2       0.6      -0.2
  5 C                 0.0      -0.0      -0.0      -0.0      -0.4      -0.0
  6 C               -34.3      -2.9      -3.2      -8.0     -35.7      -2.9
 12 H                -0.3      -0.0      -0.1      -0.0      -0.3      -0.0
 15 H                -1.7       0.0      -0.0      -0.1       0.0      -0.0
 16 H                -0.3      -0.4      -0.4      -0.1      -0.3      -0.4
 17 H               136.5     103.9     104.3     108.7      -0.3      -0.3
 18 H                -0.3      -0.3      -0.4      -0.1     136.9     103.9

                    156       157   
                   0.00000   0.00000
                   0.00011   0.00002
                  --------  --------
  4 C                -0.2      -0.2
  6 C                -2.9      -8.1
 16 H                -0.4      -0.1
 17 H                -0.4      -0.1
 18 H               104.1     108.6

Storing NBOs: 2756.nbo
                                    *** NBOs were stored ***

                                *** returned from GENNBO program ***

-------
TIMINGS
-------

Total SCF time: 0 days 0 hours 0 min 6 sec 

Total time                  ....       6.115 sec
Sum of individual times     ....       6.676 sec  (109.2%)

Fock matrix formation       ....       3.674 sec  ( 60.1%)
  Coulomb formation         ....       1.915 sec  ( 52.1% of F)
  Split-RI-J                ....       1.908 sec  ( 51.9% of F)
  XC integration            ....       1.754 sec  ( 47.7% of F)
    Basis function eval.    ....       0.594 sec  ( 33.9% of XC)
    Density eval.           ....       0.321 sec  ( 18.3% of XC)
    XC-Functional eval.     ....       0.103 sec  (  5.9% of XC)
    XC-Potential eval.      ....       0.671 sec  ( 38.2% of XC)
Diagonalization             ....       0.036 sec  (  0.6%)
Density matrix formation    ....       0.003 sec  (  0.1%)
Population analysis         ....       1.688 sec  ( 27.6%)
Initial guess               ....       0.425 sec  (  7.0%)
Orbital Transformation      ....       0.000 sec  (  0.0%)
Orbital Orthonormalization  ....       0.000 sec  (  0.0%)
DIIS solution               ....       0.009 sec  (  0.1%)
SOSCF solution              ....       0.011 sec  (  0.2%)
Grid generation             ....       0.829 sec  ( 13.6%)
           ************************************************************
           *              Shut down parallel processing               *
           ************************************************************

-------------------------   --------------------
FINAL SINGLE POINT ENERGY      -306.618514357767
-------------------------   --------------------


                            ***************************************
                            *     ORCA property calculations      *
                            ***************************************

                                    ---------------------
                                    Active property flags
                                    ---------------------
   (+) Dipole Moment


------------------------------------------------------------------------------
                       ORCA ELECTRIC PROPERTIES CALCULATION
------------------------------------------------------------------------------

Dipole Moment Calculation                       ... on
Quadrupole Moment Calculation                   ... off
Polarizability Calculation                      ... off
GBWName                                         ... 2756.gbw
Electron density file                           ... 2756.scfp.tmp

-------------
DIPOLE MOMENT
-------------
                                X             Y             Z
Electronic contribution:     -1.15997      -0.71051       3.55988
Nuclear contribution   :      1.47639       0.96142      -4.41746
                        -----------------------------------------
Total Dipole Moment    :      0.31642       0.25090      -0.85758
                        -----------------------------------------
Magnitude (a.u.)       :      0.94790
Magnitude (Debye)      :      2.40938


Timings for individual modules:

Sum of individual times         ...        7.356 sec (=   0.123 min)
GTO integral calculation        ...        0.480 sec (=   0.008 min)   6.5 %
SCF iterations                  ...        6.876 sec (=   0.115 min)  93.5 %
                             ****ORCA TERMINATED NORMALLY****
TOTAL RUN TIME: 0 days 0 hours 0 minutes 7 seconds 761 msec
