
                                 *****************
                                 * O   R   C   A *
                                 *****************

           --- An Ab Initio, DFT and Semiempirical electronic structure package ---

                  #######################################################
                  #                        -***-                        #
                  #  Department of molecular theory and spectroscopy    #
                  #              Directorship: Frank Neese              #
                  # Max Planck Institute for Chemical Energy Conversion #
                  #                  D-45470 Muelheim/Ruhr              #
                  #                       Germany                       #
                  #                                                     #
                  #                  All rights reserved                #
                  #                        -***-                        #
                  #######################################################


                         Program Version 3.0.3 - RELEASE   -


 With contributions from (in alphabetic order):
   Ute Becker             : Parallelization
   Dmytro Bykov           : SCF Hessian
   Dmitry Ganyushin       : Spin-Orbit,Spin-Spin,Magnetic field MRCI
   Andreas Hansen         : Spin unrestricted coupled pair/coupled cluster methods
   Dimitrios Liakos       : Extrapolation schemes; parallel MDCI
   Robert Izsak           : Overlap fitted RIJCOSX, COSX-SCS-MP3
   Christian Kollmar      : KDIIS, OOCD, Brueckner-CCSD(T), CCSD density
   Simone Kossmann        : Meta GGA functionals, TD-DFT gradient, OOMP2, MP2 Hessian
   Taras Petrenko         : DFT Hessian,TD-DFT gradient, ASA and ECA modules, normal mode analysis, Resonance Raman, ABS, FL, XAS/XES, NRVS
   Christoph Reimann      : Effective Core Potentials
   Michael Roemelt        : Restricted open shell CIS
   Christoph Riplinger    : Improved optimizer, TS searches, QM/MM, DLPNO-CCSD
   Barbara Sandhoefer     : DKH picture change effects
   Igor Schapiro          : Molecular dynamics
   Kantharuban Sivalingam : CASSCF convergence, NEVPT2
   Boris Wezisla          : Elementary symmetry handling
   Frank Wennmohs         : Technical directorship


 We gratefully acknowledge several colleagues who have allowed us to
 interface, adapt or use parts of their codes:
   Stefan Grimme, W. Hujo, H. Kruse, T. Risthaus : VdW corrections, initial TS optimization,
                                                   DFT functionals, gCP
   Ed Valeev                                     : LibInt (2-el integral package), F12 methods
   Garnet Chan, S. Sharma, R. Olivares           : DMRG
   Ulf Ekstrom                                   : XCFun DFT Library
   Mihaly Kallay                                 : mrcc  (arbitrary order and MRCC methods)
   Andreas Klamt, Michael Diedenhofen            : otool_cosmo (COSMO solvation model)
   Frank Weinhold                                : gennbo (NPA and NBO analysis)
   Christopher J. Cramer and Donald G. Truhlar   : smd solvation model


 Your calculation uses the libint2 library for the computation of 2-el integrals
 For citations please refer to: http://libint.valeyev.net

 This ORCA versions uses:
   CBLAS   interface :  Fast vector & matrix operations
   LAPACKE interface :  Fast linear algebra routines
   SCALAPACK package :  Parallel linear algebra routines


Your calculation utilizes the basis: Ahlrichs-VDZ
Cite in your paper:
H - Kr: A. Schaefer, H. Horn and R. Ahlrichs, J. Chem. Phys. 97, 2571 (1992).

Your calculation utilizes the basis: Ahlrichs SVPalls1+f
Cite in your paper:
Rb - Xe: A. Schaefer, C. Huber and R. Ahlrichs, J. Chem. Phys. 100, 5829 (1994).

================================================================================
                                        WARNINGS
                       Please study these warnings very carefully!
================================================================================
Now building the actual basis set


INFO   : the flag for use of LIBINT has been found!

================================================================================
                                       INPUT FILE
================================================================================
NAME = 3184.inp
|  1> ! RI PBE def2-SVP def2-SVP/J NBO PAL2
|  2> % maxcore 2000
|  3> % output
|  4>     # printlevel mini
|  5>     print[ P_Basis ] 0
|  6>     print[ P_SCFInfo ] 1
|  7>     print[ P_SCFIterInfo ] 1
|  8>     print[ P_OrbEn ] 0
|  9>     print[ P_Cartesian ] 0
| 10> end
| 11> *xyz 0 1
| 12>  C        1.2066030000     0.3615910000     0.6725720000 
| 13>  C        2.4310650000    -0.1097580000    -0.0907310000 
| 14>  C        2.4140370000    -1.6105920000    -0.4321570000 
| 15>  C        3.2521020000    -1.7680300000    -1.7074770000 
| 16>  C        3.0967990000    -0.4404430000    -2.3998150000 
| 17>  O        1.7500430000     0.0232850000    -2.4469320000 
| 18>  C        2.6137160000     0.5438080000    -1.4394720000 
| 19>  H        1.0921120000    -0.1862500000     1.6113660000 
| 20>  H        0.3043190000     0.2020320000     0.0767160000 
| 21>  H        1.2689620000     1.4258510000     0.9141870000 
| 22>  H        3.3324540000     0.1201810000     0.4935610000 
| 23>  H        1.3845440000    -1.9150750000    -0.6307780000 
| 24>  H        2.7815810000    -2.2245580000     0.3920440000 
| 25>  H        2.9295640000    -2.6099620000    -2.3251690000 
| 26>  H        4.3123120000    -1.9174510000    -1.4756990000 
| 27>  H        3.7078050000    -0.1761940000    -3.2581050000 
| 28>  H        2.8326840000     1.6054730000    -1.5202200000 
| 29> *
| 30> 
| 31>                          ****END OF INPUT****
================================================================================

                       ****************************
                       * Single Point Calculation *
                       ****************************

--------------------------------
INTERNAL COORDINATES (ANGSTROEM)
--------------------------------
 C      0   0   0   0.000000     0.000     0.000
 C      1   0   0   1.517929     0.000     0.000
 C      2   1   0   1.539274   113.915     0.000
 C      3   2   1   1.534138   106.165   152.344
 C      4   3   2   1.505303   103.619   331.755
 O      5   4   3   1.425137   113.558   313.768
 C      6   5   4   1.425430    61.502    98.939
 H      1   2   3   1.092965   111.148    58.489
 H      1   2   3   1.092987   110.270   298.778
 H      1   2   3   1.093122   111.559   178.718
 H      2   1   3   1.098531   109.235   237.426
 H      3   2   1   1.091795   108.826    34.464
 H      3   2   1   1.091490   112.163   275.853
 H      4   3   2   1.092897   112.810   209.334
 H      4   3   2   1.095488   111.519    88.283
 H      5   4   3   1.086194   121.329   169.687
 H      7   6   5   1.087014   115.227   114.782

---------------------------
INTERNAL COORDINATES (A.U.)
---------------------------
 C      0   0   0   0.000000     0.000     0.000
 C      1   0   0   2.868470     0.000     0.000
 C      2   1   0   2.908806   113.915     0.000
 C      3   2   1   2.899102   106.165   152.344
 C      4   3   2   2.844611   103.619   331.755
 O      5   4   3   2.693119   113.558   313.768
 C      6   5   4   2.693672    61.502    98.939
 H      1   2   3   2.065404   111.148    58.489
 H      1   2   3   2.065445   110.270   298.778
 H      1   2   3   2.065701   111.559   178.718
 H      2   1   3   2.075923   109.235   237.426
 H      3   2   1   2.063193   108.826    34.464
 H      3   2   1   2.062617   112.163   275.853
 H      4   3   2   2.065276   112.810   209.334
 H      4   3   2   2.070171   111.519    88.283
 H      5   4   3   2.052609   121.329   169.687
 H      7   6   5   2.054159   115.227   114.782



           ************************************************************
           *        Program running with 2 parallel MPI-processes     *
           *              working on a common directory               *
           ************************************************************
------------------------------------------------------------------------------
                           ORCA GTO INTEGRAL CALCULATION
                           -- RI-GTO INTEGRALS CHOSEN --
------------------------------------------------------------------------------

                         BASIS SET STATISTICS AND STARTUP INFO

Gaussian basis set:
 # of primitive gaussian shells          ...  134
 # of primitive gaussian functions       ...  238
 # of contracted shells                  ...   72
 # of contracted basis functions         ...  148
 Highest angular momentum                ...    2
 Maximum contraction depth               ...    5
Auxiliary gaussian basis set:
 # of primitive gaussian shells          ...  248
 # of primitive gaussian functions       ...  650
 # of contracted shells                  ...  155
 # of contracted aux-basis functions     ...  453
 Highest angular momentum                ...    4
 Maximum contraction depth               ...    7
Ratio of auxiliary to basis functions    ...  3.06
Integral package used                  ... LIBINT
 One Electron integrals                  ... done
 Ordering auxiliary basis shells         ... done
 Integral threshhold             Thresh  ...  1.000e-10
 Primitive cut-off               TCut    ...  1.000e-11
 Pre-screening matrix                    ... done
 Shell pair data                         ... 
 Ordering of the shell pairs             ... done (   0.000 sec) 2578 of 2628 pairs
 Determination of significant pairs      ... done (   0.000 sec)
 Creation of shell pair data             ... done (   0.000 sec)
 Storage of shell pair data              ... done (   0.000 sec)
 Shell pair data done in (   0.001 sec)
 Computing two index integrals           ... done
 Cholesky decomposition of the V-matrix  ... done


Timings:
 Total evaluation time                   ...   0.156 sec (  0.003 min)
 One electron matrix time                ...   0.020 sec (  0.000 min) = 13.0%
 Schwartz matrix evaluation time         ...   0.073 sec (  0.001 min) = 47.0%
 Two index repulsion integral time       ...   0.004 sec (  0.000 min) =  2.6%
 Cholesky decomposition of V             ...   0.004 sec (  0.000 min) =  2.4%
 Three index repulsion integral time     ...   0.000 sec (  0.000 min) =  0.0%

           ************************************************************
           *              Shut down parallel processing               *
           ************************************************************


           ************************************************************
           *        Program running with 2 parallel MPI-processes     *
           *              working on a common directory               *
           ************************************************************
-------------------------------------------------------------------------------
                                 ORCA SCF
-------------------------------------------------------------------------------

------------
SCF SETTINGS
------------
Hamiltonian:
 Density Functional     Method          .... DFT(GTOs)
 Exchange Functional    Exchange        .... PBE
   PBE kappa parameter  XKappa          ....  0.804000
 Correlation Functional Correlation     .... PBE
 LDA part of GGA corr.  LDAOpt          .... PW91-LDA
 Gradients option       PostSCFGGA      .... off
   NL short-range parameter             ....  6.400000
 RI-approximation to the Coulomb term is turned on
   Number of auxiliary basis functions  .... 453


General Settings:
 Integral files         IntName         .... 3184
 Hartree-Fock type      HFTyp           .... RHF
 Total Charge           Charge          ....    0
 Multiplicity           Mult            ....    1
 Number of Electrons    NEL             ....   54
 Basis Dimension        Dim             ....  148
 Nuclear Repulsion      ENuc            ....    321.6619751390 Eh

Convergence Acceleration:
 DIIS                   CNVDIIS         .... on
   Start iteration      DIISMaxIt       ....    12
   Startup error        DIISStart       ....  0.200000
   # of expansion vecs  DIISMaxEq       ....     5
   Bias factor          DIISBfac        ....   1.050
   Max. coefficient     DIISMaxC        ....  10.000
 Newton-Raphson         CNVNR           .... off
 SOSCF                  CNVSOSCF        .... on
   Start iteration      SOSCFMaxIt      ....   150
   Startup grad/error   SOSCFStart      ....  0.003300
 Level Shifting         CNVShift        .... on
   Level shift para.    LevelShift      ....    0.2500
   Turn off err/grad.   ShiftErr        ....    0.0010
 Zerner damping         CNVZerner       .... off
 Static damping         CNVDamp         .... on
   Fraction old density DampFac         ....    0.7000
   Max. Damping (<1)    DampMax         ....    0.9800
   Min. Damping (>=0)   DampMin         ....    0.0000
   Turn off err/grad.   DampErr         ....    0.1000
 Fernandez-Rico         CNVRico         .... off

SCF Procedure:
 Maximum # iterations   MaxIter         ....   125
 SCF integral mode      SCFMode         .... Direct
   Integral package                     .... LIBINT
 Reset frequeny         DirectResetFreq ....    20
 Integral Threshold     Thresh          ....  1.000e-10 Eh
 Primitive CutOff       TCut            ....  1.000e-11 Eh

Convergence Tolerance:
 Convergence Check Mode ConvCheckMode   .... Total+1el-Energy
 Energy Change          TolE            ....  1.000e-06 Eh
 1-El. energy change                    ....  1.000e-03 Eh
 Orbital Gradient       TolG            ....  5.000e-05
 Orbital Rotation angle TolX            ....  5.000e-05
 DIIS Error             TolErr          ....  1.000e-06


Diagonalization of the overlap matrix:
Smallest eigenvalue                        ... 7.410e-04
Time for diagonalization                   ...    0.013 sec
Threshold for overlap eigenvalues          ... 1.000e-08
Number of eigenvalues below threshold      ... 0
Time for construction of square roots      ...    0.003 sec
Total time needed                          ...    0.016 sec

-------------------
DFT GRID GENERATION
-------------------

General Integration Accuracy     IntAcc      ...  4.340
Radial Grid Type                 RadialGrid  ... Gauss-Chebyshev
Angular Grid (max. acc.)         AngularGrid ... Lebedev-110
Angular grid pruning method      GridPruning ... 3 (G Style)
Weight generation scheme         WeightScheme... Becke
Basis function cutoff            BFCut       ...    1.0000e-10
Integration weight cutoff        WCut        ...    1.0000e-14
Grids for H and He will be reduced by one unit

# of grid points (after initial pruning)     ...  19592 (   0.0 sec)
# of grid points (after weights+screening)   ...  18022 (   0.1 sec)
nearest neighbour list constructed           ...    0.0 sec
Grid point re-assignment to atoms done       ...    0.0 sec
Grid point division into batches done        ...    0.0 sec
Reduced shell lists constructed in    0.1 sec

Total number of grid points                  ...    18022
Total number of batches                      ...      287
Average number of points per batch           ...       62
Average number of grid points per atom       ...     1060
Average number of shells per batch           ...    59.08 (82.05%)
Average number of basis functions per batch  ...   121.28 (81.95%)
Average number of large shells per batch     ...    48.21 (81.60%)
Average number of large basis fcns per batch ...    96.97 (79.95%)
Maximum spatial batch extension              ...  19.67, 18.29, 18.24 au
Average spatial batch extension              ...   1.38,  1.43,  1.44 au

Time for grid setup =    0.153 sec

------------------------------
INITIAL GUESS: MODEL POTENTIAL
------------------------------
Loading Hartree-Fock densities                     ... done
Calculating cut-offs                               ... done
Setting up the integral package                    ... done
Initializing the effective Hamiltonian             ... done
Starting the Coulomb interaction                   ... done (   0.0 sec)
Reading the grid                                   ... done
Mapping shells                                     ... done
Starting the XC term evaluation                    ... done (   0.1 sec)
  promolecular density results
     # of electrons  =     53.997040950
     EX              =    -41.836145833
     EC              =     -1.796985061
     EX+EC           =    -43.633130895
Transforming the Hamiltonian                       ... done (   0.0 sec)
Diagonalizing the Hamiltonian                      ... done (   0.0 sec)
Back transforming the eigenvectors                 ... done (   0.0 sec)
Now organizing SCF variables                       ... done
                      ------------------
                      INITIAL GUESS DONE (   0.4 sec)
                      ------------------
--------------
SCF ITERATIONS
--------------
ITER       Energy         Delta-E        Max-DP      RMS-DP      [F,P]     Damp
               ***  Starting incremental Fock matrix formation  ***
  0   -309.0683719708   0.000000000000 0.07286582  0.00250699  0.1535209 0.7000
  1   -309.1447339818  -0.076362011044 0.04138010  0.00179191  0.0732951 0.7000
                               ***Turning on DIIS***
  2   -309.1711805037  -0.026446521883 0.04956929  0.00278841  0.0207143 0.0000
  3   -309.2106702973  -0.039489793578 0.03245696  0.00124832  0.0464415 0.0000
  4   -309.2228211870  -0.012150889746 0.00696799  0.00037353  0.0102225 0.0000
  5   -309.2234139990  -0.000592812013 0.00497040  0.00017690  0.0060191 0.0000
                      *** Initiating the SOSCF procedure ***
                           *** Shutting down DIIS ***
                      *** Re-Reading the Fockian *** 
                      *** Removing any level shift *** 
ITER      Energy       Delta-E        Grad      Rot      Max-DP    RMS-DP
  6   -309.22349654  -0.0000825377  0.000259  0.000259  0.001158  0.000052
               *** Restarting incremental Fock matrix formation ***
  7   -309.22350224  -0.0000057021  0.000088  0.000288  0.000705  0.000035
  8   -309.22350206   0.0000001755  0.000125  0.000094  0.000283  0.000013
  9   -309.22350288  -0.0000008203  0.000040  0.000111  0.000357  0.000010
 10   -309.22350284   0.0000000425  0.000069  0.000034  0.000136  0.000004
                  ***Gradient check signals convergence***
              ***Rediagonalizing the Fockian in SOSCF/NRSCF***

               *****************************************************
               *                     SUCCESS                       *
               *           SCF CONVERGED AFTER  11 CYCLES          *
               *****************************************************

Setting up the final grid:

General Integration Accuracy     IntAcc      ...  4.670
Radial Grid Type                 RadialGrid  ... Gauss-Chebyshev
Angular Grid (max. acc.)         AngularGrid ... Lebedev-302
Angular grid pruning method      GridPruning ... 3 (G Style)
Weight generation scheme         WeightScheme... Becke
Basis function cutoff            BFCut       ...    1.0000e-10
Integration weight cutoff        WCut        ...    1.0000e-14
Grids for H and He will be reduced by one unit

# of grid points (after initial pruning)     ...  77424 (   0.0 sec)
# of grid points (after weights+screening)   ...  69871 (   0.1 sec)
nearest neighbour list constructed           ...    0.0 sec
Grid point re-assignment to atoms done       ...    0.0 sec
Grid point division into batches done        ...    0.2 sec
Reduced shell lists constructed in    0.5 sec

Total number of grid points                  ...    69871
Total number of batches                      ...     1097
Average number of points per batch           ...       63
Average number of grid points per atom       ...     4110
Average number of shells per batch           ...    54.56 (75.78%)
Average number of basis functions per batch  ...   110.92 (74.94%)
Average number of large shells per batch     ...    43.78 (80.23%)
Average number of large basis fcns per batch ...    87.02 (78.46%)
Maximum spatial batch extension              ...  16.89, 18.89, 19.36 au
Average spatial batch extension              ...   1.00,  0.98,  1.01 au

Final grid set up in    0.6 sec
Final integration                            ... done (   0.5 sec)
Change in XC energy                          ...     0.000171631
Integrated number of electrons               ...    53.999927966
Previous integrated no of electrons          ...    54.000190820

----------------
TOTAL SCF ENERGY
----------------

Total Energy       :         -309.22333130 Eh           -8414.39462 eV

Components:
Nuclear Repulsion  :          321.66197514 Eh            8752.86733 eV
Electronic Energy  :         -630.88530644 Eh          -17167.26195 eV

One Electron Energy:        -1055.68574157 Eh          -28726.66946 eV
Two Electron Energy:          424.80043513 Eh           11559.40751 eV

Virial components:
Potential Energy   :         -615.50826207 Eh          -16748.83131 eV
Kinetic Energy     :          306.28493077 Eh            8334.43668 eV
Virial Ratio       :            2.00959368


DFT components:
N(Alpha)           :       26.999963982919 electrons
N(Beta)            :       26.999963982919 electrons
N(Total)           :       53.999927965838 electrons
E(X)               :      -42.695039790540 Eh       
E(C)               :       -1.806825052655 Eh       
E(XC)              :      -44.501864843195 Eh       

---------------
SCF CONVERGENCE
---------------

  Last Energy change         ...   -9.1153e-08  Tolerance :   1.0000e-06
  Last MAX-Density change    ...    4.5938e-05  Tolerance :   1.0000e-05
  Last RMS-Density change    ...    2.5137e-06  Tolerance :   1.0000e-06
  Last Orbital Gradient      ...    5.6001e-06  Tolerance :   5.0000e-05
  Last Orbital Rotation      ...    1.9285e-05  Tolerance :   5.0000e-05

             **** THE GBW FILE WAS UPDATED (3184.gbw) ****
             **** DENSITY FILE WAS UPDATED (3184.scfp.tmp) ****
             **** ENERGY FILE WAS UPDATED (3184.en.tmp) ****

                    ********************************
                    * MULLIKEN POPULATION ANALYSIS *
                    ********************************

-----------------------
MULLIKEN ATOMIC CHARGES
-----------------------
   0 C :    0.046080
   1 C :   -0.085859
   2 C :   -0.012203
   3 C :    0.103423
   4 C :    0.001872
   5 O :   -0.275233
   6 C :    0.062845
   7 H :    0.017843
   8 H :    0.028590
   9 H :    0.015006
  10 H :    0.009306
  11 H :    0.022481
  12 H :    0.009331
  13 H :    0.021301
  14 H :    0.014313
  15 H :    0.011797
  16 H :    0.009108
Sum of atomic charges:    0.0000000

--------------------------------
MULLIKEN REDUCED ORBITAL CHARGES
--------------------------------
  0 C s       :     2.967663  s :     2.967663
      pz      :     0.984250  p :     2.960855
      px      :     0.989927
      py      :     0.986678
      dz2     :     0.004554  d :     0.025403
      dxz     :     0.006071
      dyz     :     0.004442
      dx2y2   :     0.007997
      dxy     :     0.002339
  1 C s       :     3.068292  s :     3.068292
      pz      :     0.958655  p :     2.975872
      px      :     1.023451
      py      :     0.993766
      dz2     :     0.007393  d :     0.041696
      dxz     :     0.009559
      dyz     :     0.008801
      dx2y2   :     0.009327
      dxy     :     0.006616
  2 C s       :     3.009260  s :     3.009260
      pz      :     0.987229  p :     2.970641
      px      :     1.009781
      py      :     0.973631
      dz2     :     0.006311  d :     0.032302
      dxz     :     0.005404
      dyz     :     0.007920
      dx2y2   :     0.007786
      dxy     :     0.004881
  3 C s       :     2.919691  s :     2.919691
      pz      :     0.981947  p :     2.944287
      px      :     0.989459
      py      :     0.972882
      dz2     :     0.006042  d :     0.032598
      dxz     :     0.004865
      dyz     :     0.009087
      dx2y2   :     0.009349
      dxy     :     0.003255
  4 C s       :     3.184815  s :     3.184815
      pz      :     0.971650  p :     2.742828
      px      :     0.784998
      py      :     0.986180
      dz2     :     0.010025  d :     0.070484
      dxz     :     0.014607
      dyz     :     0.010891
      dx2y2   :     0.018653
      dxy     :     0.016309
  5 O s       :     3.846996  s :     3.846996
      pz      :     1.505300  p :     4.409047
      px      :     1.312292
      py      :     1.591455
      dz2     :     0.003309  d :     0.019190
      dxz     :     0.005292
      dyz     :     0.001667
      dx2y2   :     0.004544
      dxy     :     0.004378
  6 C s       :     3.163345  s :     3.163345
      pz      :     0.882163  p :     2.703980
      px      :     0.899400
      py      :     0.922417
      dz2     :     0.017625  d :     0.069830
      dxz     :     0.017078
      dyz     :     0.014830
      dx2y2   :     0.010388
      dxy     :     0.009910
  7 H s       :     0.958336  s :     0.958336
      pz      :     0.011320  p :     0.023822
      px      :     0.005006
      py      :     0.007495
  8 H s       :     0.947688  s :     0.947688
      pz      :     0.007701  p :     0.023723
      px      :     0.010384
      py      :     0.005638
  9 H s       :     0.961291  s :     0.961291
      pz      :     0.005920  p :     0.023703
      px      :     0.004797
      py      :     0.012987
 10 H s       :     0.969115  s :     0.969115
      pz      :     0.006998  p :     0.021578
      px      :     0.010074
      py      :     0.004506
 11 H s       :     0.954653  s :     0.954653
      pz      :     0.005182  p :     0.022866
      px      :     0.012477
      py      :     0.005207
 12 H s       :     0.968074  s :     0.968074
      pz      :     0.009437  p :     0.022595
      px      :     0.006006
      py      :     0.007152
 13 H s       :     0.955917  s :     0.955917
      pz      :     0.007194  p :     0.022782
      px      :     0.005792
      py      :     0.009795
 14 H s       :     0.962656  s :     0.962656
      pz      :     0.005069  p :     0.023031
      px      :     0.012701
      py      :     0.005260
 15 H s       :     0.966504  s :     0.966504
      pz      :     0.010713  p :     0.021700
      px      :     0.006722
      py      :     0.004266
 16 H s       :     0.969226  s :     0.969226
      pz      :     0.002792  p :     0.021666
      px      :     0.004942
      py      :     0.013932


                     *******************************
                     * LOEWDIN POPULATION ANALYSIS *
                     *******************************

----------------------
LOEWDIN ATOMIC CHARGES
----------------------
   0 C :   -0.056570
   1 C :   -0.052555
   2 C :   -0.031154
   3 C :   -0.046157
   4 C :    0.042801
   5 O :   -0.156492
   6 C :    0.047065
   7 H :    0.026537
   8 H :    0.029728
   9 H :    0.025909
  10 H :    0.028370
  11 H :    0.028460
  12 H :    0.025600
  13 H :    0.030462
  14 H :    0.030420
  15 H :    0.014025
  16 H :    0.013551

-------------------------------
LOEWDIN REDUCED ORBITAL CHARGES
-------------------------------
  0 C s       :     2.836092  s :     2.836092
      pz      :     1.050948  p :     3.150443
      px      :     1.040913
      py      :     1.058582
      dz2     :     0.011509  d :     0.070034
      dxz     :     0.018125
      dyz     :     0.012582
      dx2y2   :     0.021553
      dxy     :     0.006265
  1 C s       :     2.843375  s :     2.843375
      pz      :     1.029035  p :     3.103695
      px      :     1.046993
      py      :     1.027668
      dz2     :     0.018999  d :     0.105485
      dxz     :     0.025877
      dyz     :     0.021755
      dx2y2   :     0.025248
      dxy     :     0.013606
  2 C s       :     2.840375  s :     2.840375
      pz      :     1.028807  p :     3.106748
      px      :     1.060779
      py      :     1.017162
      dz2     :     0.017275  d :     0.084031
      dxz     :     0.015097
      dyz     :     0.018174
      dx2y2   :     0.022289
      dxy     :     0.011196
  3 C s       :     2.840240  s :     2.840240
      pz      :     1.032301  p :     3.118581
      px      :     1.050813
      py      :     1.035467
      dz2     :     0.014650  d :     0.087336
      dxz     :     0.013853
      dyz     :     0.024629
      dx2y2   :     0.026349
      dxy     :     0.007854
  4 C s       :     2.852353  s :     2.852353
      pz      :     1.047937  p :     2.943597
      px      :     0.863673
      py      :     1.031988
      dz2     :     0.021584  d :     0.161248
      dxz     :     0.033572
      dyz     :     0.029496
      dx2y2   :     0.043390
      dxy     :     0.033207
  5 O s       :     3.555935  s :     3.555935
      pz      :     1.541415  p :     4.567426
      px      :     1.409177
      py      :     1.616834
      dz2     :     0.005465  d :     0.033130
      dxz     :     0.009342
      dyz     :     0.002881
      dx2y2   :     0.008646
      dxy     :     0.006796
  6 C s       :     2.854504  s :     2.854504
      pz      :     0.951512  p :     2.937565
      px      :     0.950020
      py      :     1.036033
      dz2     :     0.041981  d :     0.160866
      dxz     :     0.036749
      dyz     :     0.036204
      dx2y2   :     0.024120
      dxy     :     0.021812
  7 H s       :     0.906827  s :     0.906827
      pz      :     0.032956  p :     0.066636
      px      :     0.013991
      py      :     0.019689
  8 H s       :     0.903436  s :     0.903436
      pz      :     0.021257  p :     0.066835
      px      :     0.032192
      py      :     0.013387
  9 H s       :     0.907601  s :     0.907601
      pz      :     0.014545  p :     0.066490
      px      :     0.013526
      py      :     0.038419
 10 H s       :     0.903218  s :     0.903218
      pz      :     0.022193  p :     0.068412
      px      :     0.031260
      py      :     0.014960
 11 H s       :     0.902309  s :     0.902309
      pz      :     0.014864  p :     0.069231
      px      :     0.038517
      py      :     0.015850
 12 H s       :     0.906017  s :     0.906017
      pz      :     0.028646  p :     0.068383
      px      :     0.017118
      py      :     0.022619
 13 H s       :     0.901502  s :     0.901502
      pz      :     0.022327  p :     0.068036
      px      :     0.015655
      py      :     0.030053
 14 H s       :     0.901599  s :     0.901599
      pz      :     0.014996  p :     0.067980
      px      :     0.038421
      py      :     0.014564
 15 H s       :     0.915211  s :     0.915211
      pz      :     0.033305  p :     0.070764
      px      :     0.022007
      py      :     0.015452
 16 H s       :     0.915462  s :     0.915462
      pz      :     0.011753  p :     0.070987
      px      :     0.015995
      py      :     0.043239


                      *****************************
                      * MAYER POPULATION ANALYSIS *
                      *****************************

  NA   - Mulliken gross atomic population
  ZA   - Total nuclear charge
  QA   - Mulliken gross atomic charge
  VA   - Mayer's total valence
  BVA  - Mayer's bonded valence
  FA   - Mayer's free valence

  ATOM       NA         ZA         QA         VA         BVA        FA
  0 C      5.9539     6.0000     0.0461     3.9658     3.9658     0.0000
  1 C      6.0859     6.0000    -0.0859     4.0882     4.0882    -0.0000
  2 C      6.0122     6.0000    -0.0122     4.0809     4.0809     0.0000
  3 C      5.8966     6.0000     0.1034     3.9503     3.9503     0.0000
  4 C      5.9981     6.0000     0.0019     4.0925     4.0925    -0.0000
  5 O      8.2752     8.0000    -0.2752     2.0840     2.0840     0.0000
  6 C      5.9372     6.0000     0.0628     4.0076     4.0076     0.0000
  7 H      0.9822     1.0000     0.0178     0.9869     0.9869     0.0000
  8 H      0.9714     1.0000     0.0286     0.9993     0.9993     0.0000
  9 H      0.9850     1.0000     0.0150     0.9881     0.9881     0.0000
 10 H      0.9907     1.0000     0.0093     0.9703     0.9703     0.0000
 11 H      0.9775     1.0000     0.0225     0.9983     0.9983    -0.0000
 12 H      0.9907     1.0000     0.0093     0.9792     0.9792     0.0000
 13 H      0.9787     1.0000     0.0213     0.9812     0.9812    -0.0000
 14 H      0.9857     1.0000     0.0143     0.9813     0.9813     0.0000
 15 H      0.9882     1.0000     0.0118     0.9855     0.9855    -0.0000
 16 H      0.9909     1.0000     0.0091     0.9873     0.9873    -0.0000

  Mayer bond orders larger than 0.1
B(  0-C ,  1-C ) :   1.0993 B(  0-C ,  7-H ) :   0.9605 B(  0-C ,  8-H ) :   0.9572 
B(  0-C ,  9-H ) :   0.9582 B(  1-C ,  2-C ) :   1.0447 B(  1-C ,  6-C ) :   0.9890 
B(  1-C , 10-H ) :   0.9000 B(  2-C ,  3-C ) :   1.0887 B(  2-C , 11-H ) :   0.9252 
B(  2-C , 12-H ) :   0.9289 B(  3-C ,  4-C ) :   1.0277 B(  3-C , 13-H ) :   0.9226 
B(  3-C , 14-H ) :   0.9164 B(  4-C ,  5-O ) :   0.9944 B(  4-C ,  6-C ) :   1.0269 
B(  4-C , 15-H ) :   0.9568 B(  5-O ,  6-C ) :   0.9967 B(  6-C , 16-H ) :   0.9598 



 *********************************** NBO 6.0 ***********************************
             N A T U R A L   A T O M I C   O R B I T A L   A N D
          N A T U R A L   B O N D   O R B I T A L   A N A L Y S I S
 ***************************** Kiya KiyaLu (100703) ****************************
  (c) Copyright 1996-2015 Board of Regents of the University of Wisconsin System
      on behalf of the Theoretical Chemistry Institute.  All rights reserved.

          Cite this program as:

          NBO 6.0.  E. D. Glendening, J. K. Badenhoop, A. E. Reed,
          J. E. Carpenter, J. A. Bohmann, C. M. Morales, C. R. Landis,
          and F. Weinhold (Theoretical Chemistry Institute, University
          of Wisconsin, Madison, WI, 2013); http://nbo6.chem.wisc.edu/

       /NPA    / : Natural Population Analysis
       /NBO    / : Natural Bond Orbital Analysis
       /AONBO  / : Write the AO to NBO transformation to lfn77
       /FILE   / : Set to 3184

 Filename set to 3184

 Job title:  *** NBO job generated by orca_scf

 Warning: MOs are non-orthogonal; program will continue

 Warning: -3406.15969 electrons reside outside the linearly independent MO space


 NATURAL POPULATIONS:  Natural atomic orbital occupancies

  NAO Atom No lang   Type(AO)    Occupancy      Energy
 -------------------------------------------------------
   1    C  1  s      Cor( 1s)     1.99919      -9.76532
   2    C  1  s      Val( 2s)     1.07848      -0.20460
   3    C  1  s      Ryd( 3s)     0.00059       0.83540
   4    C  1  px     Val( 2p)     1.13945      -0.06049
   5    C  1  px     Ryd( 3p)     0.00128       0.50517
   6    C  1  py     Val( 2p)     1.22040      -0.06198
   7    C  1  py     Ryd( 3p)     0.00309       0.61927
   8    C  1  pz     Val( 2p)     1.19931      -0.06146
   9    C  1  pz     Ryd( 3p)     0.00315       0.59339
  10    C  1  dxy    Ryd( 3d)     0.00020       2.05484
  11    C  1  dxz    Ryd( 3d)     0.00054       2.27261
  12    C  1  dyz    Ryd( 3d)     0.00041       2.24398
  13    C  1  dx2y2  Ryd( 3d)     0.00072       2.36780
  14    C  1  dz2    Ryd( 3d)     0.00040       2.18592

  15    C  2  s      Cor( 1s)     1.99897      -9.77451
  16    C  2  s      Val( 2s)     0.94892      -0.17386
  17    C  2  s      Ryd( 3s)     0.00141       0.91089
  18    C  2  px     Val( 2p)     1.15951      -0.07236
  19    C  2  px     Ryd( 3p)     0.00299       0.78306
  20    C  2  py     Val( 2p)     1.06373      -0.07802
  21    C  2  py     Ryd( 3p)     0.00253       0.63788
  22    C  2  pz     Val( 2p)     1.10551      -0.07475
  23    C  2  pz     Ryd( 3p)     0.00322       0.65541
  24    C  2  dxy    Ryd( 3d)     0.00061       2.03341
  25    C  2  dxz    Ryd( 3d)     0.00083       2.29897
  26    C  2  dyz    Ryd( 3d)     0.00076       2.11977
  27    C  2  dx2y2  Ryd( 3d)     0.00082       2.26129
  28    C  2  dz2    Ryd( 3d)     0.00056       2.14300

  29    C  3  s      Cor( 1s)     1.99910      -9.76771
  30    C  3  s      Val( 2s)     1.01359      -0.18917
  31    C  3  s      Ryd( 3s)     0.00145       0.90074
  32    C  3  px     Val( 2p)     1.19671      -0.06348
  33    C  3  px     Ryd( 3p)     0.00300       0.68379
  34    C  3  py     Val( 2p)     1.09674      -0.06407
  35    C  3  py     Ryd( 3p)     0.00361       0.56557
  36    C  3  pz     Val( 2p)     1.12928      -0.06673
  37    C  3  pz     Ryd( 3p)     0.00446       0.67490
  38    C  3  dxy    Ryd( 3d)     0.00040       2.10910
  39    C  3  dxz    Ryd( 3d)     0.00053       2.19872
  40    C  3  dyz    Ryd( 3d)     0.00070       2.20623
  41    C  3  dx2y2  Ryd( 3d)     0.00069       2.29928
  42    C  3  dz2    Ryd( 3d)     0.00053       2.18327

  43    C  4  s      Cor( 1s)     1.99909      -9.77257
  44    C  4  s      Val( 2s)     1.02329      -0.19582
  45    C  4  s      Ryd( 3s)     0.00074       0.89777
  46    C  4  px     Val( 2p)     1.19385      -0.06720
  47    C  4  px     Ryd( 3p)     0.00263       0.65915
  48    C  4  py     Val( 2p)     1.15023      -0.06924
  49    C  4  py     Ryd( 3p)     0.00330       0.56663
  50    C  4  pz     Val( 2p)     1.10190      -0.07294
  51    C  4  pz     Ryd( 3p)     0.00249       0.59559
  52    C  4  dxy    Ryd( 3d)     0.00031       2.08098
  53    C  4  dxz    Ryd( 3d)     0.00046       2.15677
  54    C  4  dyz    Ryd( 3d)     0.00082       2.25123
  55    C  4  dx2y2  Ryd( 3d)     0.00083       2.36417
  56    C  4  dz2    Ryd( 3d)     0.00051       2.09627

  57    C  5  s      Cor( 1s)     1.99884      -9.82220
  58    C  5  s      Val( 2s)     0.93139      -0.17332
  59    C  5  s      Ryd( 3s)     0.00293       0.66648
  60    C  5  px     Val( 2p)     0.80136      -0.07270
  61    C  5  px     Ryd( 3p)     0.00565       0.63228
  62    C  5  py     Val( 2p)     1.02722      -0.07147
  63    C  5  py     Ryd( 3p)     0.00331       0.56458
  64    C  5  pz     Val( 2p)     1.13776      -0.07798
  65    C  5  pz     Ryd( 3p)     0.00480       0.73684
  66    C  5  dxy    Ryd( 3d)     0.00208       2.03202
  67    C  5  dxz    Ryd( 3d)     0.00178       2.11675
  68    C  5  dyz    Ryd( 3d)     0.00113       2.20899
  69    C  5  dx2y2  Ryd( 3d)     0.00210       2.13261
  70    C  5  dz2    Ryd( 3d)     0.00106       2.07010

  71    O  6  s      Cor( 1s)     1.99981     -18.54082
  72    O  6  s      Val( 2s)     1.69939      -0.79875
  73    O  6  s      Ryd( 3s)     0.00102       1.52964
  74    O  6  px     Val( 2p)     1.52520      -0.27147
  75    O  6  px     Ryd( 3p)     0.00125       1.04610
  76    O  6  py     Val( 2p)     1.69166      -0.22731
  77    O  6  py     Ryd( 3p)     0.00193       1.17431
  78    O  6  pz     Val( 2p)     1.63082      -0.23781
  79    O  6  pz     Ryd( 3p)     0.00186       1.15794
  80    O  6  dxy    Ryd( 3d)     0.00163       2.79610
  81    O  6  dxz    Ryd( 3d)     0.00187       2.86091
  82    O  6  dyz    Ryd( 3d)     0.00054       2.69908
  83    O  6  dx2y2  Ryd( 3d)     0.00151       2.84354
  84    O  6  dz2    Ryd( 3d)     0.00105       2.78736

  85    C  7  s      Cor( 1s)     1.99880      -9.81794
  86    C  7  s      Val( 2s)     0.92669      -0.16906
  87    C  7  s      Ryd( 3s)     0.00409       0.69282
  88    C  7  px     Val( 2p)     0.91435      -0.09241
  89    C  7  px     Ryd( 3p)     0.00333       0.57680
  90    C  7  py     Val( 2p)     1.15680      -0.07028
  91    C  7  py     Ryd( 3p)     0.00589       0.87999
  92    C  7  pz     Val( 2p)     0.89968      -0.06080
  93    C  7  pz     Ryd( 3p)     0.00593       0.54625
  94    C  7  dxy    Ryd( 3d)     0.00133       2.02145
  95    C  7  dxz    Ryd( 3d)     0.00172       2.06792
  96    C  7  dyz    Ryd( 3d)     0.00186       2.21316
  97    C  7  dx2y2  Ryd( 3d)     0.00116       2.16330
  98    C  7  dz2    Ryd( 3d)     0.00199       2.13714

  99    H  8  s      Val( 1s)     0.77280       0.07223
 100    H  8  s      Ryd( 2s)     0.00159       0.34139
 101    H  8  px     Ryd( 2p)     0.00015       1.70517
 102    H  8  py     Ryd( 2p)     0.00031       1.88973
 103    H  8  pz     Ryd( 2p)     0.00063       2.16918

 104    H  9  s      Val( 1s)     0.77079       0.07631
 105    H  9  s      Ryd( 2s)     0.00262       0.36483
 106    H  9  px     Ryd( 2p)     0.00059       2.11987
 107    H  9  py     Ryd( 2p)     0.00016       1.75181
 108    H  9  pz     Ryd( 2p)     0.00034       1.89411

 109    H 10  s      Val( 1s)     0.77354       0.07170
 110    H 10  s      Ryd( 2s)     0.00166       0.33885
 111    H 10  px     Ryd( 2p)     0.00012       1.68851
 112    H 10  py     Ryd( 2p)     0.00079       2.27699
 113    H 10  pz     Ryd( 2p)     0.00018       1.78073

 114    H 11  s      Val( 1s)     0.75820       0.07692
 115    H 11  s      Ryd( 2s)     0.00415       0.33733
 116    H 11  px     Ryd( 2p)     0.00066       2.11433
 117    H 11  py     Ryd( 2p)     0.00011       1.78100
 118    H 11  pz     Ryd( 2p)     0.00036       1.94667

 119    H 12  s      Val( 1s)     0.76169       0.08571
 120    H 12  s      Ryd( 2s)     0.00323       0.36101
 121    H 12  px     Ryd( 2p)     0.00086       2.22088
 122    H 12  py     Ryd( 2p)     0.00015       1.80323
 123    H 12  pz     Ryd( 2p)     0.00016       1.78908

 124    H 13  s      Val( 1s)     0.76036       0.08288
 125    H 13  s      Ryd( 2s)     0.00171       0.32743
 126    H 13  px     Ryd( 2p)     0.00020       1.85138
 127    H 13  py     Ryd( 2p)     0.00032       1.92988
 128    H 13  pz     Ryd( 2p)     0.00053       2.06300

 129    H 14  s      Val( 1s)     0.75897       0.07935
 130    H 14  s      Ryd( 2s)     0.00258       0.32820
 131    H 14  px     Ryd( 2p)     0.00019       1.85646
 132    H 14  py     Ryd( 2p)     0.00053       2.07725
 133    H 14  pz     Ryd( 2p)     0.00034       1.90575

 134    H 15  s      Val( 1s)     0.76495       0.06697
 135    H 15  s      Ryd( 2s)     0.00304       0.33245
 136    H 15  px     Ryd( 2p)     0.00084       2.23953
 137    H 15  py     Ryd( 2p)     0.00015       1.78685
 138    H 15  pz     Ryd( 2p)     0.00016       1.76054

 139    H 16  s      Val( 1s)     0.78516       0.07584
 140    H 16  s      Ryd( 2s)     0.00244       0.29655
 141    H 16  px     Ryd( 2p)     0.00036       1.93708
 142    H 16  py     Ryd( 2p)     0.00014       1.84754
 143    H 16  pz     Ryd( 2p)     0.00068       2.08596

 144    H 17  s      Val( 1s)     0.78342       0.07444
 145    H 17  s      Ryd( 2s)     0.00247       0.30400
 146    H 17  px     Ryd( 2p)     0.00020       1.72001
 147    H 17  py     Ryd( 2p)     0.00099       2.28105
 148    H 17  pz     Ryd( 2p)     0.00006       1.85215

   1 low occupancy (<1.9990e) core orbital  found on  C  2
   1 low occupancy (<1.9990e) core orbital  found on  C  5
   1 low occupancy (<1.9990e) core orbital  found on  C  7


 Summary of Natural Population Analysis:

                                     Natural Population
             Natural    ---------------------------------------------
  Atom No    Charge        Core      Valence    Rydberg      Total
 --------------------------------------------------------------------
    C  1   -0.64721      1.99919     4.63764    0.01039     6.64721
    C  2   -0.29037      1.99897     4.27768    0.01373     6.29037
    C  3   -0.45077      1.99910     4.43631    0.01536     6.45077
    C  4   -0.48046      1.99909     4.46927    0.01210     6.48046
    C  5    0.07859      1.99884     3.89773    0.02484     5.92141
    O  6   -0.55952      1.99981     6.54707    0.01265     8.55952
    C  7    0.07639      1.99880     3.89752    0.02730     5.92361
    H  8    0.22453      0.00000     0.77280    0.00267     0.77547
    H  9    0.22551      0.00000     0.77079    0.00370     0.77449
    H 10    0.22370      0.00000     0.77354    0.00276     0.77630
    H 11    0.23651      0.00000     0.75820    0.00529     0.76349
    H 12    0.23391      0.00000     0.76169    0.00440     0.76609
    H 13    0.23687      0.00000     0.76036    0.00277     0.76313
    H 14    0.23739      0.00000     0.75897    0.00364     0.76261
    H 15    0.23086      0.00000     0.76495    0.00419     0.76914
    H 16    0.21121      0.00000     0.78516    0.00363     0.78879
    H 17    0.21287      0.00000     0.78342    0.00371     0.78713
 ====================================================================
 * Total *  0.00000     13.99378    39.85311    0.15310    54.00000

                                 Natural Population
 ---------------------------------------------------------
   Core                      13.99378 ( 99.9556% of   14)
   Valence                   39.85311 ( 99.6328% of   40)
   Natural Minimal Basis     53.84690 ( 99.7165% of   54)
   Natural Rydberg Basis      0.15310 (  0.2835% of   54)
 ---------------------------------------------------------

    Atom No         Natural Electron Configuration
 ----------------------------------------------------------------------------
      C  1      [core]2s( 1.08)2p( 3.56)3p( 0.01)
      C  2      [core]2s( 0.95)2p( 3.33)3p( 0.01)
      C  3      [core]2s( 1.01)2p( 3.42)3p( 0.01)
      C  4      [core]2s( 1.02)2p( 3.45)3p( 0.01)
      C  5      [core]2s( 0.93)2p( 2.97)3p( 0.01)3d( 0.01)
      O  6      [core]2s( 1.70)2p( 4.85)3p( 0.01)3d( 0.01)
      C  7      [core]2s( 0.93)2p( 2.97)3p( 0.02)3d( 0.01)
      H  8            1s( 0.77)
      H  9            1s( 0.77)
      H 10            1s( 0.77)
      H 11            1s( 0.76)
      H 12            1s( 0.76)
      H 13            1s( 0.76)
      H 14            1s( 0.76)
      H 15            1s( 0.76)
      H 16            1s( 0.79)
      H 17            1s( 0.78)


 NATURAL BOND ORBITAL ANALYSIS:

                            Occupancies       Lewis Structure    Low   High
         Max    Occ     -------------------  -----------------   occ   occ
  Cycle  Ctr   Thresh    Lewis   non-Lewis     CR  BD  nC  LP    (L)   (NL)
 ============================================================================
    1     2     1.90    53.47629   0.52371      7  18   0   2     0      0
 ----------------------------------------------------------------------------

 Structure accepted: No low occupancy Lewis orbitals

 -------------------------------------------------------
   Core                     13.99378 ( 99.956% of  14)
   Valence Lewis            39.48251 ( 98.706% of  40)
  ==================      =============================
   Total Lewis              53.47629 ( 99.030% of  54)
  -----------------------------------------------------
   Valence non-Lewis         0.41781 (  0.774% of  54)
   Rydberg non-Lewis         0.10590 (  0.196% of  54)
  ==================      =============================
   Total non-Lewis           0.52371 (  0.970% of  54)
 -------------------------------------------------------


     (Occupancy)   Bond orbital / Coefficients / Hybrids
 ------------------ Lewis ------------------------------------------------------
   1. (1.99919) CR ( 1) C  1            s(100.00%)
                                         1.0000  0.0000  0.0000  0.0000  0.0000
                                         0.0000  0.0000  0.0000  0.0000  0.0000
                                         0.0000  0.0000  0.0000  0.0000
   2. (1.99897) CR ( 1) C  2            s(100.00%)
                                         1.0000  0.0000  0.0000  0.0000  0.0000
                                         0.0000  0.0000  0.0000  0.0000  0.0000
                                         0.0000  0.0000  0.0000  0.0000
   3. (1.99910) CR ( 1) C  3            s(100.00%)
                                         1.0000  0.0000  0.0000  0.0000  0.0000
                                         0.0000  0.0000  0.0000  0.0000  0.0000
                                         0.0000  0.0000  0.0000  0.0000
   4. (1.99909) CR ( 1) C  4            s(100.00%)
                                         1.0000  0.0000  0.0000  0.0000  0.0000
                                         0.0000  0.0000  0.0000  0.0000  0.0000
                                         0.0000  0.0000  0.0000  0.0000
   5. (1.99884) CR ( 1) C  5            s(100.00%)
                                         1.0000  0.0000  0.0000  0.0000  0.0000
                                         0.0000  0.0000  0.0000  0.0000  0.0000
                                         0.0000  0.0000  0.0000  0.0000
   6. (1.99981) CR ( 1) O  6            s(100.00%)
                                         1.0000  0.0000  0.0000  0.0000  0.0000
                                         0.0000  0.0000  0.0000  0.0000  0.0000
                                         0.0000  0.0000  0.0000  0.0000
   7. (1.99880) CR ( 1) C  7            s(100.00%)
                                         1.0000  0.0000  0.0000  0.0000  0.0000
                                         0.0000  0.0000  0.0000  0.0000  0.0000
                                         0.0000  0.0000  0.0000  0.0000
   8. (1.98668) LP ( 1) O  6            s( 62.29%)p 0.60( 37.68%)d 0.00(  0.02%)
                                         0.0000  0.7892 -0.0045 -0.5708  0.0050
                                        -0.0746  0.0009 -0.2132  0.0014 -0.0036
                                        -0.0090  0.0023 -0.0105  0.0044
   9. (1.91035) LP ( 2) O  6            s(  0.31%)p99.99( 99.60%)d 0.30(  0.09%)
                                         0.0000  0.0549  0.0071  0.2198 -0.0025
                                         0.7321 -0.0086 -0.6416  0.0082  0.0198
                                        -0.0143  0.0100  0.0060 -0.0136
  10. (1.97929) BD ( 1) C  1- C  2
               ( 48.79%)   0.6985* C  1 s( 30.65%)p 2.26( 69.31%)d 0.00(  0.04%)
                                         0.0000  0.5537  0.0007  0.6768  0.0051
                                        -0.2535  0.0033 -0.4131  0.0104 -0.0081
                                        -0.0130  0.0046  0.0095 -0.0025
               ( 51.21%)   0.7156* C  2 s( 27.66%)p 2.61( 72.31%)d 0.00(  0.03%)
                                         0.0000  0.5257  0.0143 -0.6836  0.0089
                                         0.2622  0.0058  0.4321  0.0153 -0.0086
                                        -0.0117  0.0045  0.0084 -0.0025
  11. (1.98655) BD ( 1) C  1- H  8
               ( 61.28%)   0.7828* C  1 s( 23.05%)p 3.34( 76.91%)d 0.00(  0.04%)
                                         0.0000  0.4801  0.0021 -0.0962 -0.0111
                                        -0.4372  0.0107  0.7540  0.0027  0.0011
                                        -0.0020 -0.0146 -0.0045  0.0115
               ( 38.72%)   0.6223* H  8 s( 99.91%)p 0.00(  0.09%)
                                         0.9995 -0.0012  0.0044  0.0146 -0.0265
  12. (1.98719) BD ( 1) C  1- H  9
               ( 61.48%)   0.7841* C  1 s( 23.16%)p 3.32( 76.81%)d 0.00(  0.04%)
                                         0.0000  0.4812 -0.0033 -0.7280 -0.0102
                                        -0.1243  0.0077 -0.4715  0.0126  0.0042
                                         0.0150  0.0031  0.0105 -0.0002
               ( 38.52%)   0.6206* H  9 s( 99.90%)p 0.00(  0.10%)
                                         0.9995 -0.0031  0.0263  0.0038  0.0166
  13. (1.98693) BD ( 1) C  1- H 10
               ( 61.25%)   0.7826* C  1 s( 23.08%)p 3.33( 76.88%)d 0.00(  0.04%)
                                         0.0000  0.4804  0.0020  0.0457 -0.0128
                                         0.8536 -0.0036  0.1948  0.0082  0.0030
                                         0.0005  0.0064 -0.0156 -0.0081
               ( 38.75%)   0.6225* H 10 s( 99.90%)p 0.00(  0.10%)
                                         0.9995 -0.0012 -0.0004 -0.0305 -0.0073
  14. (1.96985) BD ( 1) C  2- C  3
               ( 50.61%)   0.7114* C  2 s( 25.98%)p 2.85( 73.98%)d 0.00(  0.04%)
                                         0.0000  0.5097 -0.0029 -0.0192  0.0023
                                        -0.8486 -0.0015 -0.1361  0.0268  0.0004
                                        -0.0002  0.0091 -0.0154 -0.0059
               ( 49.39%)   0.7028* C  3 s( 27.51%)p 2.63( 72.45%)d 0.00(  0.04%)
                                         0.0000  0.5245 -0.0061  0.0047  0.0018
                                         0.8189 -0.0101  0.2304  0.0269  0.0021
                                        -0.0007  0.0054 -0.0164 -0.0085
  15. (1.97340) BD ( 1) C  2- C  7
               ( 50.80%)   0.7128* C  2 s( 25.63%)p 2.90( 74.33%)d 0.00(  0.04%)
                                         0.0000  0.5063 -0.0010  0.0792  0.0015
                                         0.4223  0.0193 -0.7471  0.0102  0.0011
                                        -0.0028 -0.0132 -0.0041  0.0136
               ( 49.20%)   0.7014* C  7 s( 32.81%)p 2.05( 67.15%)d 0.00(  0.04%)
                                         0.0000  0.5728 -0.0072 -0.1415  0.0144
                                        -0.2955  0.0488  0.7493  0.0056  0.0025
                                        -0.0050 -0.0149 -0.0078  0.0103
  16. (1.95797) BD ( 1) C  2- H 11
               ( 62.09%)   0.7879* C  2 s( 20.66%)p 3.84( 79.31%)d 0.00(  0.03%)
                                         0.0000  0.4544 -0.0076  0.7247 -0.0079
                                         0.1787 -0.0004  0.4856  0.0051  0.0066
                                         0.0126  0.0033  0.0111 -0.0034
               ( 37.91%)   0.6157* H 11 s( 99.88%)p 0.00(  0.12%)
                                         0.9994 -0.0066 -0.0278 -0.0063 -0.0193
  17. (1.97855) BD ( 1) C  3- C  4
               ( 49.78%)   0.7055* C  3 s( 26.93%)p 2.71( 73.03%)d 0.00(  0.04%)
                                         0.0000  0.5190  0.0028  0.4723  0.0048
                                        -0.1392 -0.0338 -0.6976  0.0056 -0.0007
                                        -0.0165  0.0014  0.0043  0.0101
               ( 50.22%)   0.7087* C  4 s( 27.58%)p 2.63( 72.39%)d 0.00(  0.04%)
                                         0.0000  0.5251 -0.0005 -0.4519  0.0010
                                         0.0250 -0.0301  0.7198  0.0029 -0.0048
                                        -0.0150  0.0046  0.0037  0.0090
  18. (1.97851) BD ( 1) C  3- H 12
               ( 61.95%)   0.7871* C  3 s( 22.33%)p 3.48( 77.64%)d 0.00(  0.03%)
                                         0.0000  0.4725 -0.0040 -0.8286  0.0034
                                        -0.2539 -0.0181 -0.1581  0.0107  0.0067
                                         0.0069  0.0019  0.0133 -0.0077
               ( 38.05%)   0.6169* H 12 s( 99.88%)p 0.00(  0.12%)
                                         0.9994 -0.0041  0.0324  0.0094  0.0066
  19. (1.98056) BD ( 1) C  3- H 13
               ( 61.96%)   0.7872* C  3 s( 23.09%)p 3.33( 76.88%)d 0.00(  0.03%)
                                         0.0000  0.4804  0.0087  0.2996 -0.0123
                                        -0.4945 -0.0050  0.6590 -0.0058 -0.0064
                                         0.0086 -0.0131 -0.0028  0.0065
               ( 38.04%)   0.6168* H 13 s( 99.90%)p 0.00(  0.10%)
                                         0.9995 -0.0017 -0.0100  0.0182 -0.0243
  20. (1.98249) BD ( 1) C  4- C  5
               ( 50.54%)   0.7109* C  4 s( 27.05%)p 2.70( 72.91%)d 0.00(  0.04%)
                                         0.0000  0.5201  0.0020 -0.0724  0.0050
                                         0.7214 -0.0102 -0.4501 -0.0258 -0.0042
                                         0.0008 -0.0141 -0.0130 -0.0035
               ( 49.46%)   0.7033* C  5 s( 32.29%)p 2.10( 67.67%)d 0.00(  0.04%)
                                         0.0000  0.5682 -0.0026  0.0842  0.0313
                                        -0.7588 -0.0046  0.3017 -0.0432 -0.0008
                                        -0.0023 -0.0156 -0.0133  0.0005
  21. (1.97796) BD ( 1) C  4- H 14
               ( 62.10%)   0.7880* C  4 s( 23.15%)p 3.32( 76.82%)d 0.00(  0.03%)
                                         0.0000  0.4811  0.0044 -0.2595  0.0133
                                        -0.6785  0.0014 -0.4902  0.0058  0.0067
                                         0.0062  0.0137 -0.0072  0.0006
               ( 37.90%)   0.6156* H 14 s( 99.90%)p 0.00(  0.10%)
                                         0.9995 -0.0036  0.0095  0.0248  0.0175
  22. (1.96945) BD ( 1) C  4- H 15
               ( 61.64%)   0.7851* C  4 s( 22.12%)p 3.52( 77.84%)d 0.00(  0.04%)
                                         0.0000  0.4703 -0.0036  0.8501 -0.0013
                                        -0.1326 -0.0172  0.1946 -0.0092 -0.0006
                                         0.0066 -0.0004  0.0157 -0.0083
               ( 38.36%)   0.6194* H 15 s( 99.89%)p 0.00(  0.11%)
                                         0.9994 -0.0040 -0.0318  0.0063 -0.0073
  23. (1.97123) BD ( 1) C  5- O  6
               ( 33.25%)   0.5766* C  5 s( 15.02%)p 5.64( 84.69%)d 0.02(  0.29%)
                                         0.0000  0.3872  0.0179 -0.8763 -0.0270
                                         0.0877  0.0144 -0.2636 -0.0308 -0.0263
                                         0.0040  0.0015  0.0382 -0.0266
               ( 66.75%)   0.8170* O  6 s( 18.62%)p 4.36( 81.25%)d 0.01(  0.13%)
                                         0.0000  0.4315  0.0055  0.7417 -0.0026
                                        -0.4569 -0.0117 -0.2305 -0.0212 -0.0183
                                         0.0048 -0.0018  0.0255 -0.0180
  24. (1.96001) BD ( 1) C  5- C  7
               ( 49.93%)   0.7066* C  5 s( 22.31%)p 3.48( 77.61%)d 0.00(  0.08%)
                                         0.0000  0.4723 -0.0029  0.0828  0.0176
                                         0.6137  0.0225  0.6252 -0.0323 -0.0120
                                        -0.0083  0.0218 -0.0096  0.0053
               ( 50.07%)   0.7076* C  7 s( 22.15%)p 3.51( 77.77%)d 0.00(  0.08%)
                                         0.0000  0.4706  0.0051  0.6129  0.0046
                                        -0.4649  0.0363 -0.4294 -0.0147 -0.0134
                                        -0.0107  0.0212 -0.0076  0.0052
  25. (1.98696) BD ( 1) C  5- H 16
               ( 61.43%)   0.7838* C  5 s( 30.13%)p 2.32( 69.83%)d 0.00(  0.03%)
                                         0.0000  0.5490 -0.0018  0.4625 -0.0126
                                         0.1963 -0.0059 -0.6676  0.0075  0.0060
                                        -0.0118 -0.0077  0.0002  0.0081
               ( 38.57%)   0.6210* H 16 s( 99.89%)p 0.00(  0.11%)
                                         0.9994 -0.0068 -0.0180 -0.0089  0.0259
  26. (1.97191) BD ( 1) O  6- C  7
               ( 66.72%)   0.8168* O  6 s( 18.77%)p 4.32( 81.09%)d 0.01(  0.13%)
                                         0.0000  0.4333  0.0054  0.2723 -0.0158
                                         0.4981  0.0164  0.6986  0.0058  0.0134
                                         0.0281  0.0143  0.0095  0.0084
               ( 33.28%)   0.5769* C  7 s( 14.95%)p 5.67( 84.76%)d 0.02(  0.29%)
                                         0.0000  0.3862  0.0195 -0.7592 -0.0267
                                        -0.1493  0.0156 -0.4968 -0.0342  0.0202
                                         0.0393  0.0251  0.0135  0.0108
  27. (1.98666) BD ( 1) C  7- H 17
               ( 61.53%)   0.7844* C  7 s( 29.84%)p 2.35( 70.13%)d 0.00(  0.03%)
                                         0.0000  0.5463 -0.0024  0.1581 -0.0064
                                         0.8198 -0.0072 -0.0640 -0.0034  0.0042
                                        -0.0031 -0.0060 -0.0127 -0.0072
               ( 38.47%)   0.6202* H 17 s( 99.88%)p 0.00(  0.12%)
                                         0.9994 -0.0067 -0.0071 -0.0331  0.0036
 ---------------- non-Lewis ----------------------------------------------------
  28. (0.01777) BD*( 1) C  1- C  2
               ( 51.21%)   0.7156* C  1 s( 30.65%)p 2.26( 69.31%)d 0.00(  0.04%)
                                         0.0000  0.5537  0.0007  0.6768  0.0051
                                        -0.2535  0.0033 -0.4131  0.0104 -0.0081
                                        -0.0130  0.0046  0.0095 -0.0025
               ( 48.79%)  -0.6985* C  2 s( 27.66%)p 2.61( 72.31%)d 0.00(  0.03%)
                                         0.0000  0.5257  0.0143 -0.6836  0.0089
                                         0.2622  0.0058  0.4321  0.0153 -0.0086
                                        -0.0117  0.0045  0.0084 -0.0025
  29. (0.00707) BD*( 1) C  1- H  8
               ( 38.72%)   0.6223* C  1 s( 23.05%)p 3.34( 76.91%)d 0.00(  0.04%)
                                         0.0000 -0.4801 -0.0021  0.0962  0.0111
                                         0.4372 -0.0107 -0.7540 -0.0027 -0.0011
                                         0.0020  0.0146  0.0045 -0.0115
               ( 61.28%)  -0.7828* H  8 s( 99.91%)p 0.00(  0.09%)
                                        -0.9995  0.0012 -0.0044 -0.0146  0.0265
  30. (0.01001) BD*( 1) C  1- H  9
               ( 38.52%)   0.6206* C  1 s( 23.16%)p 3.32( 76.81%)d 0.00(  0.04%)
                                         0.0000 -0.4812  0.0033  0.7280  0.0102
                                         0.1243 -0.0077  0.4715 -0.0126 -0.0042
                                        -0.0150 -0.0031 -0.0105  0.0002
               ( 61.48%)  -0.7841* H  9 s( 99.90%)p 0.00(  0.10%)
                                        -0.9995  0.0031 -0.0263 -0.0038 -0.0166
  31. (0.00717) BD*( 1) C  1- H 10
               ( 38.75%)   0.6225* C  1 s( 23.08%)p 3.33( 76.88%)d 0.00(  0.04%)
                                         0.0000 -0.4804 -0.0020 -0.0457  0.0128
                                        -0.8536  0.0036 -0.1948 -0.0082 -0.0030
                                        -0.0005 -0.0064  0.0156  0.0081
               ( 61.25%)  -0.7826* H 10 s( 99.90%)p 0.00(  0.10%)
                                        -0.9995  0.0012  0.0004  0.0305  0.0073
  32. (0.02506) BD*( 1) C  2- C  3
               ( 49.39%)   0.7028* C  2 s( 25.98%)p 2.85( 73.98%)d 0.00(  0.04%)
                                         0.0000 -0.5097  0.0029  0.0192 -0.0023
                                         0.8486  0.0015  0.1361 -0.0268 -0.0004
                                         0.0002 -0.0091  0.0154  0.0059
               ( 50.61%)  -0.7114* C  3 s( 27.51%)p 2.63( 72.45%)d 0.00(  0.04%)
                                         0.0000 -0.5245  0.0061 -0.0047 -0.0018
                                        -0.8189  0.0101 -0.2304 -0.0269 -0.0021
                                         0.0007 -0.0054  0.0164  0.0085
  33. (0.04180) BD*( 1) C  2- C  7
               ( 49.20%)   0.7014* C  2 s( 25.63%)p 2.90( 74.33%)d 0.00(  0.04%)
                                         0.0000 -0.5063  0.0010 -0.0792 -0.0015
                                        -0.4223 -0.0193  0.7471 -0.0102 -0.0011
                                         0.0028  0.0132  0.0041 -0.0136
               ( 50.80%)  -0.7128* C  7 s( 32.81%)p 2.05( 67.15%)d 0.00(  0.04%)
                                         0.0000 -0.5728  0.0072  0.1415 -0.0144
                                         0.2955 -0.0488 -0.7493 -0.0056 -0.0025
                                         0.0050  0.0149  0.0078 -0.0103
  34. (0.02696) BD*( 1) C  2- H 11
               ( 37.91%)   0.6157* C  2 s( 20.66%)p 3.84( 79.31%)d 0.00(  0.03%)
                                         0.0000 -0.4544  0.0076 -0.7247  0.0079
                                        -0.1787  0.0004 -0.4856 -0.0051 -0.0066
                                        -0.0126 -0.0033 -0.0111  0.0034
               ( 62.09%)  -0.7879* H 11 s( 99.88%)p 0.00(  0.12%)
                                        -0.9994  0.0066  0.0278  0.0063  0.0193
  35. (0.01297) BD*( 1) C  3- C  4
               ( 50.22%)   0.7087* C  3 s( 26.93%)p 2.71( 73.03%)d 0.00(  0.04%)
                                         0.0000 -0.5190 -0.0028 -0.4723 -0.0048
                                         0.1392  0.0338  0.6976 -0.0056  0.0007
                                         0.0165 -0.0014 -0.0043 -0.0101
               ( 49.78%)  -0.7055* C  4 s( 27.58%)p 2.63( 72.39%)d 0.00(  0.04%)
                                         0.0000 -0.5251  0.0005  0.4519 -0.0010
                                        -0.0250  0.0301 -0.7198 -0.0029  0.0048
                                         0.0150 -0.0046 -0.0037 -0.0090
  36. (0.01570) BD*( 1) C  3- H 12
               ( 38.05%)   0.6169* C  3 s( 22.33%)p 3.48( 77.64%)d 0.00(  0.03%)
                                         0.0000 -0.4725  0.0040  0.8286 -0.0034
                                         0.2539  0.0181  0.1581 -0.0107 -0.0067
                                        -0.0069 -0.0019 -0.0133  0.0077
               ( 61.95%)  -0.7871* H 12 s( 99.88%)p 0.00(  0.12%)
                                        -0.9994  0.0041 -0.0324 -0.0094 -0.0066
  37. (0.01255) BD*( 1) C  3- H 13
               ( 38.04%)   0.6168* C  3 s( 23.09%)p 3.33( 76.88%)d 0.00(  0.03%)
                                         0.0000 -0.4804 -0.0087 -0.2996  0.0123
                                         0.4945  0.0050 -0.6590  0.0058  0.0064
                                        -0.0086  0.0131  0.0028 -0.0065
               ( 61.96%)  -0.7872* H 13 s( 99.90%)p 0.00(  0.10%)
                                        -0.9995  0.0017  0.0100 -0.0182  0.0243
  38. (0.03233) BD*( 1) C  4- C  5
               ( 49.46%)   0.7033* C  4 s( 27.05%)p 2.70( 72.91%)d 0.00(  0.04%)
                                         0.0000 -0.5201 -0.0020  0.0724 -0.0050
                                        -0.7214  0.0102  0.4501  0.0258  0.0042
                                        -0.0008  0.0141  0.0130  0.0035
               ( 50.54%)  -0.7109* C  5 s( 32.29%)p 2.10( 67.67%)d 0.00(  0.04%)
                                         0.0000 -0.5682  0.0026 -0.0842 -0.0313
                                         0.7588  0.0046 -0.3017  0.0432  0.0008
                                         0.0023  0.0156  0.0133 -0.0005
  39. (0.01624) BD*( 1) C  4- H 14
               ( 37.90%)   0.6156* C  4 s( 23.15%)p 3.32( 76.82%)d 0.00(  0.03%)
                                         0.0000 -0.4811 -0.0044  0.2595 -0.0133
                                         0.6785 -0.0014  0.4902 -0.0058 -0.0067
                                        -0.0062 -0.0137  0.0072 -0.0006
               ( 62.10%)  -0.7880* H 14 s( 99.90%)p 0.00(  0.10%)
                                        -0.9995  0.0036 -0.0095 -0.0248 -0.0175
  40. (0.01674) BD*( 1) C  4- H 15
               ( 38.36%)   0.6194* C  4 s( 22.12%)p 3.52( 77.84%)d 0.00(  0.04%)
                                         0.0000 -0.4703  0.0036 -0.8501  0.0013
                                         0.1326  0.0172 -0.1946  0.0092  0.0006
                                        -0.0066  0.0004 -0.0157  0.0083
               ( 61.64%)  -0.7851* H 15 s( 99.89%)p 0.00(  0.11%)
                                        -0.9994  0.0040  0.0318 -0.0063  0.0073
  41. (0.04104) BD*( 1) C  5- O  6
               ( 66.75%)   0.8170* C  5 s( 15.02%)p 5.64( 84.69%)d 0.02(  0.29%)
                                         0.0000  0.3872  0.0179 -0.8763 -0.0270
                                         0.0877  0.0144 -0.2636 -0.0308 -0.0263
                                         0.0040  0.0015  0.0382 -0.0266
               ( 33.25%)  -0.5766* O  6 s( 18.62%)p 4.36( 81.25%)d 0.01(  0.13%)
                                         0.0000  0.4315  0.0055  0.7417 -0.0026
                                        -0.4569 -0.0117 -0.2305 -0.0212 -0.0183
                                         0.0048 -0.0018  0.0255 -0.0180
  42. (0.03106) BD*( 1) C  5- C  7
               ( 50.07%)   0.7076* C  5 s( 22.31%)p 3.48( 77.61%)d 0.00(  0.08%)
                                         0.0000  0.4723 -0.0029  0.0828  0.0176
                                         0.6137  0.0225  0.6252 -0.0323 -0.0120
                                        -0.0083  0.0218 -0.0096  0.0053
               ( 49.93%)  -0.7066* C  7 s( 22.15%)p 3.51( 77.77%)d 0.00(  0.08%)
                                         0.0000  0.4706  0.0051  0.6129  0.0046
                                        -0.4649  0.0363 -0.4294 -0.0147 -0.0134
                                        -0.0107  0.0212 -0.0076  0.0052
  43. (0.03197) BD*( 1) C  5- H 16
               ( 38.57%)   0.6210* C  5 s( 30.13%)p 2.32( 69.83%)d 0.00(  0.03%)
                                         0.0000 -0.5490  0.0018 -0.4625  0.0126
                                        -0.1963  0.0059  0.6676 -0.0075 -0.0060
                                         0.0118  0.0077 -0.0002 -0.0081
               ( 61.43%)  -0.7838* H 16 s( 99.89%)p 0.00(  0.11%)
                                        -0.9994  0.0068  0.0180  0.0089 -0.0259
  44. (0.03875) BD*( 1) O  6- C  7
               ( 33.28%)   0.5769* O  6 s( 18.77%)p 4.32( 81.09%)d 0.01(  0.13%)
                                         0.0000 -0.4333 -0.0054 -0.2723  0.0158
                                        -0.4981 -0.0164 -0.6986 -0.0058 -0.0134
                                        -0.0281 -0.0143 -0.0095 -0.0084
               ( 66.72%)  -0.8168* C  7 s( 14.95%)p 5.67( 84.76%)d 0.02(  0.29%)
                                         0.0000 -0.3862 -0.0195  0.7592  0.0267
                                         0.1493 -0.0156  0.4968  0.0342 -0.0202
                                        -0.0393 -0.0251 -0.0135 -0.0108
  45. (0.03264) BD*( 1) C  7- H 17
               ( 38.47%)   0.6202* C  7 s( 29.84%)p 2.35( 70.13%)d 0.00(  0.03%)
                                         0.0000 -0.5463  0.0024 -0.1581  0.0064
                                        -0.8198  0.0072  0.0640  0.0034 -0.0042
                                         0.0031  0.0060  0.0127  0.0072
               ( 61.53%)  -0.7844* H 17 s( 99.88%)p 0.00(  0.12%)
                                        -0.9994  0.0067  0.0071  0.0331 -0.0036
  46. (0.00361) RY ( 1) C  1            s(  2.55%)p35.41( 90.21%)d 2.84(  7.25%)
                                         0.0000  0.0065  0.1595  0.0005 -0.0361
                                         0.0095  0.5975 -0.0103 -0.7372  0.1262
                                        -0.1334 -0.0857  0.0108  0.1769
  47. (0.00322) RY ( 2) C  1            s(  4.42%)p19.87( 87.87%)d 1.74(  7.70%)
                                         0.0000  0.0103  0.2100 -0.0034 -0.3398
                                        -0.0112 -0.7068 -0.0077 -0.5133 -0.0958
                                        -0.0629  0.1055 -0.2172  0.0748
  48. (0.00068) RY ( 3) C  1            s( 40.45%)p 1.43( 57.93%)d 0.04(  1.62%)
                                         0.0000  0.0120  0.6359 -0.0097  0.7412
                                         0.0022 -0.1627  0.0054 -0.0581  0.0157
                                         0.0727 -0.0211  0.0550 -0.0849
  49. (0.00014) RY ( 4) C  1            s( 43.66%)p 0.96( 41.90%)d 0.33( 14.44%)
                                         0.0000 -0.0139  0.6606  0.0101 -0.5722
                                        -0.0032  0.1833 -0.0018  0.2406  0.0436
                                         0.2051 -0.0947  0.1544 -0.2601
  50. (0.00005) RY ( 5) C  1            s(  2.72%)p 2.55(  6.92%)d33.23( 90.36%)
  51. (0.00002) RY ( 6) C  1            s(  0.20%)p30.68(  6.09%)d99.99( 93.71%)
  52. (0.00001) RY ( 7) C  1            s(  3.46%)p 1.53(  5.28%)d26.39( 91.26%)
  53. (0.00001) RY ( 8) C  1            s(  1.13%)p 2.46(  2.78%)d85.05( 96.09%)
  54. (0.00000) RY ( 9) C  1            s(  1.47%)p 0.75(  1.11%)d66.10( 97.41%)
  55. (0.00374) RY ( 1) C  2            s(  9.18%)p 8.86( 81.33%)d 1.03(  9.49%)
                                         0.0000 -0.0160  0.3026  0.0226  0.8085
                                         0.0019  0.2363  0.0066  0.3213 -0.1460
                                        -0.2286  0.0084 -0.1370  0.0502
  56. (0.00331) RY ( 2) C  2            s(  9.93%)p 8.43( 83.66%)d 0.65(  6.41%)
                                         0.0000  0.0232  0.3142  0.0047  0.2844
                                        -0.0043 -0.6126 -0.0121 -0.6166 -0.1269
                                        -0.0549  0.1444  0.1325  0.0810
  57. (0.00146) RY ( 3) C  2            s(  3.26%)p26.16( 85.32%)d 3.50( 11.42%)
                                         0.0000 -0.0105  0.1803  0.0056 -0.1933
                                         0.0121 -0.6539 -0.0018  0.6229  0.0877
                                        -0.2314 -0.1579 -0.0682  0.1530
  58. (0.00075) RY ( 4) C  2            s( 47.92%)p 0.52( 24.79%)d 0.57( 27.29%)
                                         0.0000 -0.0041  0.6922  0.0085 -0.4057
                                        -0.0019  0.2872  0.0020 -0.0265 -0.0399
                                        -0.0314  0.3827 -0.2074  0.2844
  59. (0.00059) RY ( 5) C  2            s(  0.62%)p 6.02(  3.70%)d99.99( 95.68%)
                                         0.0000 -0.0005  0.0784 -0.0002 -0.0409
                                         0.0122 -0.1545 -0.0019  0.1066 -0.6212
                                         0.5219 -0.0583 -0.4220 -0.3421
  60. (0.00038) RY ( 6) C  2            s( 18.29%)p 0.22(  3.96%)d 4.25( 77.76%)
                                         0.0000  0.0044  0.4276 -0.0020 -0.0151
                                        -0.0150  0.1207  0.0085 -0.1564  0.2228
                                         0.2154 -0.8241  0.0486  0.0005
  61. (0.00022) RY ( 7) C  2            s(  4.22%)p 1.35(  5.68%)d21.35( 90.10%)
                                         0.0000 -0.0032  0.2054  0.0118 -0.2012
                                        -0.0072  0.1099 -0.0117  0.0628 -0.4204
                                        -0.4114 -0.0744  0.5533 -0.4933
  62. (0.00019) RY ( 8) C  2            s(  5.17%)p 0.33(  1.70%)d18.03( 93.14%)
                                         0.0000 -0.0005  0.2273 -0.0026  0.0774
                                         0.0130 -0.0866 -0.0115  0.0562  0.5833
                                         0.1119  0.2730 -0.1081 -0.7018
  63. (0.00011) RY ( 9) C  2            s(  1.50%)p 6.64(  9.93%)d59.19( 88.57%)
                                         0.0000 -0.0078  0.1221 -0.0069  0.1223
                                        -0.0045 -0.0196 -0.0113  0.2894  0.0266
                                         0.6240  0.2117  0.6460  0.1832
  64. (0.00585) RY ( 1) C  3            s(  9.80%)p 8.72( 85.51%)d 0.48(  4.68%)
                                         0.0000  0.0274  0.3119 -0.0114 -0.4533
                                         0.0184  0.4704 -0.0200 -0.6538 -0.0106
                                        -0.0375 -0.1718 -0.1073  0.0655
  65. (0.00291) RY ( 2) C  3            s(  8.87%)p 9.18( 81.38%)d 1.10(  9.75%)
                                         0.0000 -0.0125  0.2976 -0.0033 -0.7002
                                        -0.0058 -0.0368 -0.0048  0.5675 -0.2289
                                        -0.0472  0.1872 -0.0055  0.0882
  66. (0.00127) RY ( 3) C  3            s(  6.44%)p12.79( 82.33%)d 1.75( 11.24%)
                                         0.0000  0.0169  0.2532  0.0073  0.3257
                                        -0.0089  0.7374 -0.0075  0.4162  0.1162
                                        -0.1423 -0.1229  0.2112 -0.1376
  67. (0.00057) RY ( 4) C  3            s( 64.29%)p 0.30( 19.08%)d 0.26( 16.63%)
                                         0.0000 -0.0070  0.8018 -0.0037  0.2981
                                         0.0043 -0.2918  0.0106 -0.1291  0.1676
                                        -0.0114  0.3706 -0.0233  0.0114
  68. (0.00030) RY ( 5) C  3            s(  1.49%)p 3.35(  5.00%)d62.63( 93.51%)
                                         0.0000 -0.0043  0.1221 -0.0007  0.0301
                                         0.0033 -0.1901  0.0050 -0.1137 -0.5408
                                        -0.3573 -0.2115  0.2029 -0.6550
  69. (0.00014) RY ( 6) C  3            s(  7.61%)p 1.34( 10.15%)d10.81( 82.24%)
                                         0.0000 -0.0136  0.2754 -0.0053  0.0040
                                         0.0150 -0.2930 -0.0002  0.1241  0.1020
                                         0.1334 -0.8263  0.1802  0.2809
  70. (0.00009) RY ( 7) C  3            s(  1.24%)p 2.42(  3.00%)d77.14( 95.76%)
  71. (0.00005) RY ( 8) C  3            s(  0.15%)p67.73( 10.19%)d99.99( 89.66%)
  72. (0.00002) RY ( 9) C  3            s(  0.25%)p13.62(  3.35%)d99.99( 96.40%)
  73. (0.00358) RY ( 1) C  4            s(  5.58%)p15.14( 84.50%)d 1.78(  9.91%)
                                         0.0000  0.0199  0.2354  0.0123  0.4492
                                         0.0203  0.6348  0.0165  0.4893 -0.0224
                                         0.0377  0.2235 -0.2144  0.0360
  74. (0.00238) RY ( 2) C  4            s(  1.08%)p82.96( 89.95%)d 8.27(  8.97%)
                                         0.0000  0.0191  0.1024 -0.0031 -0.8501
                                         0.0061  0.2769 -0.0041  0.3165 -0.1842
                                         0.0374  0.1592  0.0392 -0.1658
  75. (0.00116) RY ( 3) C  4            s(  0.23%)p99.99( 89.32%)d46.44( 10.45%)
                                         0.0000  0.0059  0.0471 -0.0096  0.0111
                                        -0.0097  0.5781  0.0157 -0.7473 -0.1657
                                        -0.0169  0.1258  0.2033 -0.1401
  76. (0.00066) RY ( 4) C  4            s( 63.44%)p 0.01(  0.88%)d 0.56( 35.69%)
                                         0.0000 -0.0019  0.7965  0.0015 -0.0489
                                        -0.0078 -0.0542 -0.0008 -0.0582 -0.1475
                                         0.0931 -0.4023  0.1535  0.3756
  77. (0.00032) RY ( 5) C  4            s( 16.86%)p 0.02(  0.41%)d 4.91( 82.73%)
                                         0.0000 -0.0028  0.4106  0.0000  0.0090
                                        -0.0013 -0.0607  0.0015 -0.0191  0.4695
                                        -0.4689 -0.0519 -0.0435 -0.6184
  78. (0.00012) RY ( 6) C  4            s(  0.40%)p37.07( 14.75%)d99.99( 84.85%)
                                         0.0000 -0.0046  0.0629 -0.0115  0.2416
                                         0.0119 -0.1853 -0.0139  0.2331 -0.2925
                                         0.1180  0.2102  0.7731 -0.3273
  79. (0.00008) RY ( 7) C  4            s(  0.19%)p 4.20(  0.80%)d99.99( 99.00%)
  80. (0.00003) RY ( 8) C  4            s( 11.12%)p 1.61( 17.96%)d 6.38( 70.92%)
  81. (0.00001) RY ( 9) C  4            s(  1.21%)p 1.20(  1.46%)d80.39( 97.33%)
  82. (0.00691) RY ( 1) C  5            s( 16.97%)p 4.21( 71.45%)d 0.68( 11.58%)
                                         0.0000 -0.0114  0.4118  0.0352 -0.6638
                                        -0.0235  0.5075  0.0159 -0.1194 -0.1371
                                        -0.2902  0.0466 -0.0001 -0.1028
  83. (0.00352) RY ( 2) C  5            s( 29.59%)p 0.31(  9.23%)d 2.07( 61.19%)
                                         0.0000 -0.0111  0.5438  0.0098  0.2860
                                         0.0102 -0.0199 -0.0185 -0.0976 -0.5247
                                         0.3840 -0.1320 -0.4026 -0.0978
  84. (0.00268) RY ( 3) C  5            s( 10.08%)p 7.23( 72.91%)d 1.69( 17.00%)
                                         0.0000  0.0370  0.3153 -0.0244 -0.2368
[...]
                  --------  --------  --------  --------  --------  --------
  0 C                -0.3       0.2      -0.0       0.2       0.2      -0.0
  1 C               -20.4      -1.0      -2.3      -1.8      -3.4      -2.1
  2 C               218.3     110.2     125.2     108.1     116.5     107.6
  3 C               -72.2      -4.9      -6.6      -1.6      -1.9      -2.0
  4 C                 2.0       0.2      -0.4      -0.5      -0.0      -0.1
  5 O                -0.1      -0.0      -0.1       0.0       0.1      -0.0
  6 C                 0.6       0.0      -1.2      -0.2       0.2       0.1
 10 H                 0.1      -0.2      -0.1      -0.0       0.2      -0.0
 11 H                -8.1      -3.3      -3.0      -1.1     -10.4      -1.4
 12 H               -21.2      -1.2     -11.6      -3.1      -1.6      -1.9
 13 H                 0.7       0.3       0.2      -0.0      -0.0      -0.0
 14 H                 0.9      -0.3       0.0      -0.1       0.1      -0.0

                     72        73        74        75        76        77   
                   0.00000   0.00000   0.00000   0.00000   0.00000   0.00000
                   0.00358   0.00238   0.00116   0.00066   0.00032   0.00012
                  --------  --------  --------  --------  --------  --------
  0 C                -0.8      -0.1      -0.2      -0.5      -0.1       0.0
  1 C                -3.5       0.1      -0.4       0.1       0.4      -0.1
  2 C               -15.1     -30.4     -18.7     -40.9     -11.3      -3.1
  3 C               158.4     157.4     161.1     216.9     134.4     117.4
  4 C               -19.9     -16.8     -38.7     -51.5     -12.9      -2.9
  5 O                -0.4       0.2      -0.2       0.4       0.0       0.2
  6 C                 2.5       2.5      -1.0       3.4       0.5       0.2
 10 H                -0.1       0.0      -0.0       0.1      -0.0      -0.0
 11 H                -0.0       0.2      -0.0       0.7      -0.2       0.0
 12 H                 0.2      -0.1       0.2       0.1       0.2       0.3
 13 H               -10.6      -2.0      -0.8     -18.3      -5.4      -1.1
 14 H               -10.4     -10.9      -1.6     -10.2      -5.4     -10.8
 15 H                -0.2       0.1       0.3      -0.4      -0.2      -0.1

                     78        79        80        81        82        83   
                   0.00000   0.00000   0.00000   0.00000   0.00000   0.00000
                   0.00008   0.00003   0.00001   0.00691   0.00352   0.00268
                  --------  --------  --------  --------  --------  --------
  0 C                 0.0      -0.0      -0.0       0.1       0.0      -0.0
  1 C                -0.2      -0.2      -0.0       0.9       1.4       2.8
  2 C                -1.4      -4.8      -1.7      -1.4       0.1       2.9
  3 C               105.8     126.5     112.0      -8.3     -18.0     -53.7
  4 C                -1.3      -3.4      -4.4     191.6     154.1     192.7
  5 O                -0.1      -0.1      -0.0     -14.8      -1.4      -6.5
  6 C                -0.2      -0.0       0.1     -64.7     -20.0     -22.8
 12 H                 0.0      -0.0      -0.0      -0.1       0.0      -0.3
 13 H                -1.0     -14.5      -4.6      -0.2       0.0      -0.0
 14 H                -1.6      -3.6      -1.3       0.3      -0.5      -0.4
 15 H                 0.1       0.1      -0.1      -3.2     -15.8     -14.8
 16 H                -0.0      -0.0      -0.0      -0.3      -0.0      -0.0

                     84        85        86        87        88        89   
                   0.00000   0.00000   0.00000   0.00000   0.00000   0.00000
                   0.00118   0.00064   0.00047   0.00025   0.00014   0.00005
                  --------  --------  --------  --------  --------  --------
  0 C                -0.1      -0.0      -0.0       0.1       0.0      -0.0
  1 C                -0.4       0.1       0.3       0.7      -0.1       2.2
  2 C                -0.0      -0.6      -0.2       1.0      -0.1      -0.7
  3 C               -12.1      -1.2      -7.3     -41.1      -3.2      -6.3
  4 C               129.2     115.8     124.3     177.8     111.3     122.7
  5 O                -4.3      -4.3       1.0      -2.8      -0.2       0.3
  6 C                -9.9      -8.5     -15.2     -23.4      -1.7     -10.5
 13 H                -0.5      -0.1       0.5       0.0       0.2      -0.1
 14 H                 0.1       0.0       0.3       0.1      -0.0      -0.1
 15 H                -2.2      -1.2      -3.9     -12.1      -6.1      -7.5
 16 H                 0.2      -0.1       0.2      -0.1      -0.0      -0.1

                     90        91        92        93        94        95   
                   0.00000   0.00000   0.00000   0.00000   0.00000   0.00000
                   0.00264   0.00129   0.00040   0.00032   0.00007   0.00003
                  --------  --------  --------  --------  --------  --------
  0 C                -0.0      -0.1      -0.2      -0.0       0.0      -0.0
  1 C                 1.1       0.2      -1.4       0.5       0.1      -0.1
  2 C                -2.1      -0.2       0.4      -0.1      -0.0      -0.0
  3 C                 0.9       0.3      -1.5       1.0       0.1      -0.1
  4 C                -5.4      -2.8      -4.2     -14.0      -0.7      -1.4
  5 O               113.3     104.4     115.2     125.4     101.3     103.5
  6 C                -7.1      -1.3      -6.7     -12.4      -0.6      -1.5
  8 H                 0.0      -0.2      -0.0      -0.0      -0.0      -0.1
 10 H                -0.2      -0.0      -0.2       0.0      -0.0      -0.0
 11 H                -0.3      -0.1      -0.0      -0.0       0.0      -0.0
 13 H                 0.0      -0.0      -0.1      -0.0      -0.0      -0.0
 14 H                -0.1      -0.0      -0.1       0.0      -0.0      -0.0
 15 H                -0.0      -0.1      -0.4      -0.2      -0.1      -0.1
 16 H                -0.1      -0.1      -0.6      -0.1      -0.1      -0.1

                     96        97        98        99       100       101   
                   0.00000   0.00000   0.00000   0.00000   0.00000   0.00000
                   0.00002   0.00001   0.00000   0.00754   0.00426   0.00271
                  --------  --------  --------  --------  --------  --------
  0 C                -0.0      -0.0      -0.0       0.2      -2.2      -0.3
  1 C                -0.0       0.1      -0.0     -11.6     -40.4     -40.9
  2 C                 0.0      -0.0      -0.2      -1.0       0.8       3.6
  3 C                -0.0       0.2       0.0       1.4       0.4       2.9
  4 C                -1.3      -4.0      -0.8     -67.5     -10.3     -27.2
  5 O               102.5     108.3     101.9     -17.8      -3.9      -3.1
  6 C                -1.1      -4.3      -0.7     199.8     174.5     182.3
  7 H                -0.0      -0.0      -0.0      -0.0      -0.2      -0.1
  8 H                -0.0      -0.0      -0.0      -0.4      -0.2      -0.1
  9 H                -0.0      -0.0       0.0      -0.3       0.2      -0.2
 10 H                -0.0      -0.0      -0.0       0.4      -0.2      -0.7
 12 H                 0.0      -0.0      -0.0      -0.1       0.0      -0.2
 15 H                 0.0      -0.1      -0.1      -0.3      -0.0      -0.2
 16 H                 0.0      -0.1      -0.1      -2.7     -18.5     -16.1

                    102       103       104       105       106       107   
                   0.00000   0.00000   0.00000   0.00000   0.00000   0.00000
                   0.00247   0.00070   0.00049   0.00035   0.00011   0.00007
                  --------  --------  --------  --------  --------  --------
  0 C                -3.0      -0.2       0.6      -0.0      -0.1      -0.0
  1 C               -19.5      -6.6      -5.6     -20.2      -1.3      -6.9
  2 C                 0.6      -0.3       0.1       0.4      -0.1      -0.4
  3 C                -0.8      -0.0       0.0       0.8      -0.2       2.3
  4 C               -12.4      -2.1      -1.9     -40.2      -1.7     -11.2
  5 O                -4.2      -3.1      -0.0      -2.4      -0.7       0.5
  6 C               142.3     116.3     108.9     171.6     106.4     123.0
  7 H                -0.2      -0.0      -0.0      -0.0       0.0      -0.0
  8 H                -0.3      -0.0      -0.1      -0.1       0.0       0.0
 10 H                -0.0       0.1       0.2      -0.0      -0.0      -0.1
 15 H                 0.7      -0.0      -0.0       0.0       0.1      -0.2
 16 H                -3.0      -4.1      -2.2      -9.9      -2.5      -6.9

                    108       109       110       111       112       113   
                   0.00000   0.00000   0.00000   0.00000   0.00000   0.00000
                   0.00162   0.00017   0.00012   0.00003   0.00265   0.00015
                  --------  --------  --------  --------  --------  --------
  0 C               -34.1      -2.9      -3.1      -8.0     -35.5      -3.0
  1 C                 0.8      -0.3      -0.1      -0.2       1.4      -0.1
  2 C                -0.5      -0.0      -0.0      -0.0      -0.2      -0.0
  5 O                -0.0      -0.0      -0.0      -0.0      -0.2      -0.0
  6 C                -0.3      -0.0      -0.0      -0.1      -1.5      -0.0
  7 H               135.5     104.1     104.1     108.6      -0.4      -0.4
  8 H                -0.3      -0.4      -0.4      -0.1     138.7     104.1
  9 H                -0.2      -0.4      -0.4      -0.1      -0.5      -0.4
 10 H                -0.2      -0.0      -0.1      -0.0       0.0      -0.1
 11 H                -0.1      -0.0      -0.0      -0.0      -1.8      -0.0
 12 H                -0.4      -0.0      -0.0      -0.0      -0.0      -0.0

                    114       115       116       117       118       119   
                   0.00000   0.00000   0.00000   0.00000   0.00000   0.00000
                   0.00011   0.00003   0.00169   0.00016   0.00011   0.00002
                  --------  --------  --------  --------  --------  --------
  0 C                -2.9      -7.9     -34.5      -2.9      -3.2      -7.9
  1 C                -0.3      -0.1       0.6      -0.2      -0.1      -0.2
  2 C                -0.1      -0.0      -0.2      -0.0      -0.1      -0.1
  6 C                -0.1      -0.0      -0.3      -0.0      -0.0      -0.0
  7 H                -0.4      -0.1      -0.2      -0.4      -0.4      -0.1
  8 H               104.2     108.3      -0.4      -0.4      -0.4      -0.1
  9 H                -0.4      -0.1     135.9     104.0     104.3     108.5
 10 H                -0.0      -0.0      -0.4      -0.0      -0.0      -0.0
 16 H                -0.0      -0.0      -0.5      -0.0      -0.0      -0.0

                    120       121       122       123       124       125   
                   0.00000   0.00000   0.00000   0.00000   0.00000   0.00000
                   0.00419   0.00011   0.00007   0.00004   0.00327   0.00013
                  --------  --------  --------  --------  --------  --------
  0 C                 0.1      -0.2      -0.5       0.2      -1.6      -0.0
  1 C               -31.2      -3.0      -3.7      -8.4       1.6      -0.1
  2 C                 0.5      -0.2      -0.2      -0.1     -36.7      -3.5
  3 C                 0.0      -0.0      -0.1      -0.0       0.8      -0.2
  4 C                 0.2      -0.1       0.0      -0.0       0.1      -0.1
  5 O                -0.1      -0.1      -0.2      -0.1      -0.3      -0.1
  6 C                -0.4      -0.1      -0.6      -0.1       0.1      -0.0
  7 H                -0.2      -0.1      -0.0      -0.0      -0.1       0.0
  8 H                -0.0      -0.0      -0.0      -0.0      -1.8      -0.0
  9 H                -0.3      -0.0      -0.0      -0.0      -0.0      -0.0
 10 H               132.8     104.1     105.6     108.6      -0.0      -0.0
 11 H                -0.0      -0.1      -0.0      -0.0     139.7     104.7
 12 H                -0.8      -0.1      -0.0       0.0      -0.7      -0.6
 13 H                -0.0      -0.0      -0.0      -0.0      -1.1      -0.0
 14 H                -0.3      -0.0      -0.0      -0.0      -0.0      -0.0
 16 H                -0.2      -0.0      -0.0      -0.0       0.0      -0.0

                    126       127       128       129       130       131   
                   0.00000   0.00000   0.00000   0.00000   0.00000   0.00000
                   0.00008   0.00003   0.00173   0.00012   0.00009   0.00003
                  --------  --------  --------  --------  --------  --------
  0 C                -0.0       0.0       0.1      -0.0      -0.1      -0.0
  1 C                -0.3      -0.2       0.8      -0.1      -0.2      -0.2
  2 C                -2.8      -7.8     -37.0      -3.7      -2.9      -7.8
  3 C                -0.2      -0.2       1.0      -0.1      -0.3      -0.2
  4 C                -0.0      -0.1      -0.3      -0.0      -0.1      -0.0
  6 C                -0.1      -0.0      -0.3      -0.0      -0.1      -0.0
  7 H                -0.0      -0.0      -0.4      -0.0      -0.0      -0.0
 10 H                -0.0      -0.0      -0.8      -0.1      -0.0      -0.0
 11 H               104.1     108.2      -0.6      -0.6      -0.5      -0.0
 12 H                -0.4       0.0     138.3     104.8     104.3     108.4
 14 H                -0.0      -0.0      -0.8      -0.1      -0.0      -0.0

                    132       133       134       135       136       137   
                   0.00000   0.00000   0.00000   0.00000   0.00000   0.00000
                   0.00261   0.00013   0.00010   0.00003   0.00306   0.00014
                  --------  --------  --------  --------  --------  --------
  1 C                -0.3      -0.1      -0.0      -0.0       0.1      -0.1
  2 C                 1.0      -0.1      -0.2      -0.4       0.4      -0.1
  3 C               -35.7      -4.0      -3.3      -7.6     -33.2      -3.4
  4 C                -0.3       0.0      -0.3      -0.3      -0.4      -0.0
  5 O                -0.0      -0.0      -0.2      -0.0      -0.1      -0.1
  6 C                 0.1      -0.0      -0.0       0.0       0.2      -0.0
 10 H                -0.0      -0.0      -0.0      -0.0      -0.3      -0.0
 11 H                -1.0      -0.1      -0.0      -0.0      -0.0      -0.1
 12 H                 0.0       0.0      -0.0      -0.0      -0.8      -0.1
 13 H               136.8     104.9     104.6     108.2      -0.5      -0.6
 14 H                -0.5      -0.6      -0.6       0.0     134.8     104.5
 15 H                -0.0      -0.0      -0.0      -0.0      -0.3      -0.0

                    138       139       140       141       142       143   
                   0.00000   0.00000   0.00000   0.00000   0.00000   0.00000
                   0.00011   0.00003   0.00250   0.00018   0.00009   0.00003
                  --------  --------  --------  --------  --------  --------
  2 C                -0.1      -0.2      -0.3      -0.0      -0.0      -0.0
  3 C                -3.5      -7.7      -0.3      -0.3      -0.6      -0.1
  4 C                -0.3      -0.2     -43.3      -2.8      -7.4      -4.3
  5 O                -0.0      -0.1      -0.1      -0.3      -0.0      -0.8
  6 C                -0.1      -0.0      -0.3      -0.6       0.3      -0.7
 13 H                -0.6       0.0      -0.0      -0.0       0.0      -0.0
 14 H               104.8     108.2      -0.3      -0.0       0.0      -0.0
 15 H                -0.1      -0.0     145.3     104.1     107.8     106.0
 16 H                -0.0      -0.0      -0.6      -0.0      -0.0      -0.0

                    144       145       146       147   
                   0.00000   0.00000   0.00000   0.00000
                   0.00252   0.00016   0.00009   0.00003
                  --------  --------  --------  --------
  1 C                -0.5      -0.4      -0.3      -0.1
  2 C                -0.2      -0.0      -0.0      -0.0
  4 C                -0.4      -0.5       0.2      -0.7
  5 O                -0.2      -0.5      -0.0      -0.8
  6 C               -42.0      -2.9      -8.1      -3.9
  9 H                -0.5      -0.0      -0.0      -0.0
 10 H                -0.3      -0.0       0.0      -0.0
 15 H                -0.6      -0.0      -0.0      -0.1
 16 H               144.5     104.5     108.3     105.7

Storing NBOs: 3184.nbo
                                    *** NBOs were stored ***

                                *** returned from GENNBO program ***

-------
TIMINGS
-------

Total SCF time: 0 days 0 hours 0 min 6 sec 

Total time                  ....       6.152 sec
Sum of individual times     ....       6.696 sec  (108.8%)

Fock matrix formation       ....       4.020 sec  ( 65.4%)
  Coulomb formation         ....       2.068 sec  ( 51.4% of F)
  Split-RI-J                ....       2.059 sec  ( 51.2% of F)
  XC integration            ....       1.947 sec  ( 48.4% of F)
    Basis function eval.    ....       0.641 sec  ( 32.9% of XC)
    Density eval.           ....       0.359 sec  ( 18.5% of XC)
    XC-Functional eval.     ....       0.101 sec  (  5.2% of XC)
    XC-Potential eval.      ....       0.804 sec  ( 41.3% of XC)
Diagonalization             ....       0.028 sec  (  0.5%)
Density matrix formation    ....       0.003 sec  (  0.0%)
Population analysis         ....       1.458 sec  ( 23.7%)
Initial guess               ....       0.416 sec  (  6.8%)
Orbital Transformation      ....       0.000 sec  (  0.0%)
Orbital Orthonormalization  ....       0.000 sec  (  0.0%)
DIIS solution               ....       0.007 sec  (  0.1%)
SOSCF solution              ....       0.011 sec  (  0.2%)
Grid generation             ....       0.752 sec  ( 12.2%)
           ************************************************************
           *              Shut down parallel processing               *
           ************************************************************

-------------------------   --------------------
FINAL SINGLE POINT ENERGY      -309.223331301524
-------------------------   --------------------


                            ***************************************
                            *     ORCA property calculations      *
                            ***************************************

                                    ---------------------
                                    Active property flags
                                    ---------------------
   (+) Dipole Moment


------------------------------------------------------------------------------
                       ORCA ELECTRIC PROPERTIES CALCULATION
------------------------------------------------------------------------------

Dipole Moment Calculation                       ... on
Quadrupole Moment Calculation                   ... off
Polarizability Calculation                      ... off
GBWName                                         ... 3184.gbw
Electron density file                           ... 3184.scfp.tmp

-------------
DIPOLE MOMENT
-------------
                                X             Y             Z
Electronic contribution:      0.33799       1.27511      -4.72721
Nuclear contribution   :      0.23436      -1.33580       5.10222
                        -----------------------------------------
Total Dipole Moment    :      0.57235      -0.06070       0.37500
                        -----------------------------------------
Magnitude (a.u.)       :      0.68695
Magnitude (Debye)      :      1.74608


Timings for individual modules:

Sum of individual times         ...        7.369 sec (=   0.123 min)
GTO integral calculation        ...        0.470 sec (=   0.008 min)   6.4 %
SCF iterations                  ...        6.899 sec (=   0.115 min)  93.6 %
                             ****ORCA TERMINATED NORMALLY****
TOTAL RUN TIME: 0 days 0 hours 0 minutes 7 seconds 773 msec
