
                                 *****************
                                 * O   R   C   A *
                                 *****************

           --- An Ab Initio, DFT and Semiempirical electronic structure package ---

                  #######################################################
                  #                        -***-                        #
                  #  Department of molecular theory and spectroscopy    #
                  #              Directorship: Frank Neese              #
                  # Max Planck Institute for Chemical Energy Conversion #
                  #                  D-45470 Muelheim/Ruhr              #
                  #                       Germany                       #
                  #                                                     #
                  #                  All rights reserved                #
                  #                        -***-                        #
                  #######################################################


                         Program Version 3.0.3 - RELEASE   -


 With contributions from (in alphabetic order):
   Ute Becker             : Parallelization
   Dmytro Bykov           : SCF Hessian
   Dmitry Ganyushin       : Spin-Orbit,Spin-Spin,Magnetic field MRCI
   Andreas Hansen         : Spin unrestricted coupled pair/coupled cluster methods
   Dimitrios Liakos       : Extrapolation schemes; parallel MDCI
   Robert Izsak           : Overlap fitted RIJCOSX, COSX-SCS-MP3
   Christian Kollmar      : KDIIS, OOCD, Brueckner-CCSD(T), CCSD density
   Simone Kossmann        : Meta GGA functionals, TD-DFT gradient, OOMP2, MP2 Hessian
   Taras Petrenko         : DFT Hessian,TD-DFT gradient, ASA and ECA modules, normal mode analysis, Resonance Raman, ABS, FL, XAS/XES, NRVS
   Christoph Reimann      : Effective Core Potentials
   Michael Roemelt        : Restricted open shell CIS
   Christoph Riplinger    : Improved optimizer, TS searches, QM/MM, DLPNO-CCSD
   Barbara Sandhoefer     : DKH picture change effects
   Igor Schapiro          : Molecular dynamics
   Kantharuban Sivalingam : CASSCF convergence, NEVPT2
   Boris Wezisla          : Elementary symmetry handling
   Frank Wennmohs         : Technical directorship


 We gratefully acknowledge several colleagues who have allowed us to
 interface, adapt or use parts of their codes:
   Stefan Grimme, W. Hujo, H. Kruse, T. Risthaus : VdW corrections, initial TS optimization,
                                                   DFT functionals, gCP
   Ed Valeev                                     : LibInt (2-el integral package), F12 methods
   Garnet Chan, S. Sharma, R. Olivares           : DMRG
   Ulf Ekstrom                                   : XCFun DFT Library
   Mihaly Kallay                                 : mrcc  (arbitrary order and MRCC methods)
   Andreas Klamt, Michael Diedenhofen            : otool_cosmo (COSMO solvation model)
   Frank Weinhold                                : gennbo (NPA and NBO analysis)
   Christopher J. Cramer and Donald G. Truhlar   : smd solvation model


 Your calculation uses the libint2 library for the computation of 2-el integrals
 For citations please refer to: http://libint.valeyev.net

 This ORCA versions uses:
   CBLAS   interface :  Fast vector & matrix operations
   LAPACKE interface :  Fast linear algebra routines
   SCALAPACK package :  Parallel linear algebra routines


Your calculation utilizes the basis: Ahlrichs-VDZ
Cite in your paper:
H - Kr: A. Schaefer, H. Horn and R. Ahlrichs, J. Chem. Phys. 97, 2571 (1992).

Your calculation utilizes the basis: Ahlrichs SVPalls1+f
Cite in your paper:
Rb - Xe: A. Schaefer, C. Huber and R. Ahlrichs, J. Chem. Phys. 100, 5829 (1994).

================================================================================
                                        WARNINGS
                       Please study these warnings very carefully!
================================================================================
Now building the actual basis set


INFO   : the flag for use of LIBINT has been found!

================================================================================
                                       INPUT FILE
================================================================================
NAME = 3421.inp
|  1> ! RI PBE def2-SVP def2-SVP/J NBO PAL2
|  2> % maxcore 2000
|  3> % output
|  4>     # printlevel mini
|  5>     print[ P_Basis ] 0
|  6>     print[ P_SCFInfo ] 1
|  7>     print[ P_SCFIterInfo ] 1
|  8>     print[ P_OrbEn ] 0
|  9>     print[ P_Cartesian ] 0
| 10> end
| 11> *xyz 0 1
| 12>  C        1.0174060000     0.0569380000    -0.0720960000 
| 13>  C        2.4977330000    -0.0938630000     0.2367640000 
| 14>  O        3.2091750000     1.0724530000    -0.2252020000 
| 15>  C        3.6069910000     1.0724370000    -1.5074040000 
| 16>  C        3.7835510000    -0.0406230000    -2.2300320000 
| 17>  C        3.6271410000    -1.3139540000    -1.5589630000 
| 18>  C        3.0729800000    -1.3509160000    -0.3454890000 
| 19>  H        0.6255750000     0.9811480000     0.3584370000 
| 20>  H        0.4654740000    -0.7867220000     0.3494360000 
| 21>  H        0.8532090000     0.0661640000    -1.1516170000 
| 22>  H        2.6437520000    -0.0746930000     1.3198870000 
| 23>  H        3.8322650000     2.0707150000    -1.8653800000 
| 24>  H        4.1336610000     0.0298010000    -3.2500630000 
| 25>  H        4.0144510000    -2.2136660000    -2.0241800000 
| 26>  H        2.9890270000    -2.2683210000     0.2255020000 
| 27> *
| 28> 
| 29>                          ****END OF INPUT****
================================================================================

                       ****************************
                       * Single Point Calculation *
                       ****************************

--------------------------------
INTERNAL COORDINATES (ANGSTROEM)
--------------------------------
 C      0   0   0   0.000000     0.000     0.000
 C      1   0   0   1.519705     0.000     0.000
 O      2   1   0   1.442170   109.583     0.000
 C      3   2   1   1.342498   116.879   273.889
 C      4   3   2   1.338756   123.685   337.392
 C      5   4   3   1.447815   117.825   355.456
 C      6   5   4   1.334534   119.385    12.752
 H      1   2   3   1.092270   110.689   304.520
 H      1   2   3   1.092740   109.694   184.618
 H      1   2   3   1.091976   110.379    65.515
 H      2   1   3   1.093089   109.255   113.022
 H      4   3   2   1.084184   112.142   161.287
 H      5   4   3   1.080740   119.868   181.787
 H      6   5   4   1.084397   119.490   196.339
 H      7   6   5   1.083841   122.320   183.902

---------------------------
INTERNAL COORDINATES (A.U.)
---------------------------
 C      0   0   0   0.000000     0.000     0.000
 C      1   0   0   2.871826     0.000     0.000
 O      2   1   0   2.725307   109.583     0.000
 C      3   2   1   2.536953   116.879   273.889
 C      4   3   2   2.529882   123.685   337.392
 C      5   4   3   2.735975   117.825   355.456
 C      6   5   4   2.521903   119.385    12.752
 H      1   2   3   2.064092   110.689   304.520
 H      1   2   3   2.064979   109.694   184.618
 H      1   2   3   2.063535   110.379    65.515
 H      2   1   3   2.065640   109.255   113.022
 H      4   3   2   2.048810   112.142   161.287
 H      5   4   3   2.042303   119.868   181.787
 H      6   5   4   2.049214   119.490   196.339
 H      7   6   5   2.048162   122.320   183.902



           ************************************************************
           *        Program running with 2 parallel MPI-processes     *
           *              working on a common directory               *
           ************************************************************
------------------------------------------------------------------------------
                           ORCA GTO INTEGRAL CALCULATION
                           -- RI-GTO INTEGRALS CHOSEN --
------------------------------------------------------------------------------

                         BASIS SET STATISTICS AND STARTUP INFO

Gaussian basis set:
 # of primitive gaussian shells          ...  124
 # of primitive gaussian functions       ...  224
 # of contracted shells                  ...   66
 # of contracted basis functions         ...  138
 Highest angular momentum                ...    2
 Maximum contraction depth               ...    5
Auxiliary gaussian basis set:
 # of primitive gaussian shells          ...  232
 # of primitive gaussian functions       ...  618
 # of contracted shells                  ...  145
 # of contracted aux-basis functions     ...  431
 Highest angular momentum                ...    4
 Maximum contraction depth               ...    7
Ratio of auxiliary to basis functions    ...  3.12
Integral package used                  ... LIBINT
 One Electron integrals                  ... done
 Ordering auxiliary basis shells         ... done
 Integral threshhold             Thresh  ...  1.000e-10
 Primitive cut-off               TCut    ...  1.000e-11
 Pre-screening matrix                    ... done
 Shell pair data                         ... 
 Ordering of the shell pairs             ... done (   0.000 sec) 2174 of 2211 pairs
 Determination of significant pairs      ... done (   0.000 sec)
 Creation of shell pair data             ... done (   0.000 sec)
 Storage of shell pair data              ... done (   0.000 sec)
 Shell pair data done in (   0.001 sec)
 Computing two index integrals           ... done
 Cholesky decomposition of the V-matrix  ... done


Timings:
 Total evaluation time                   ...   0.158 sec (  0.003 min)
 One electron matrix time                ...   0.018 sec (  0.000 min) = 11.6%
 Schwartz matrix evaluation time         ...   0.076 sec (  0.001 min) = 48.0%
 Two index repulsion integral time       ...   0.004 sec (  0.000 min) =  2.3%
 Cholesky decomposition of V             ...   0.003 sec (  0.000 min) =  2.0%
 Three index repulsion integral time     ...   0.000 sec (  0.000 min) =  0.0%

           ************************************************************
           *              Shut down parallel processing               *
           ************************************************************


           ************************************************************
           *        Program running with 2 parallel MPI-processes     *
           *              working on a common directory               *
           ************************************************************
-------------------------------------------------------------------------------
                                 ORCA SCF
-------------------------------------------------------------------------------

------------
SCF SETTINGS
------------
Hamiltonian:
 Density Functional     Method          .... DFT(GTOs)
 Exchange Functional    Exchange        .... PBE
   PBE kappa parameter  XKappa          ....  0.804000
 Correlation Functional Correlation     .... PBE
 LDA part of GGA corr.  LDAOpt          .... PW91-LDA
 Gradients option       PostSCFGGA      .... off
   NL short-range parameter             ....  6.400000
 RI-approximation to the Coulomb term is turned on
   Number of auxiliary basis functions  .... 431


General Settings:
 Integral files         IntName         .... 3421
 Hartree-Fock type      HFTyp           .... RHF
 Total Charge           Charge          ....    0
 Multiplicity           Mult            ....    1
 Number of Electrons    NEL             ....   52
 Basis Dimension        Dim             ....  138
 Nuclear Repulsion      ENuc            ....    297.9395800895 Eh

Convergence Acceleration:
 DIIS                   CNVDIIS         .... on
   Start iteration      DIISMaxIt       ....    12
   Startup error        DIISStart       ....  0.200000
   # of expansion vecs  DIISMaxEq       ....     5
   Bias factor          DIISBfac        ....   1.050
   Max. coefficient     DIISMaxC        ....  10.000
 Newton-Raphson         CNVNR           .... off
 SOSCF                  CNVSOSCF        .... on
   Start iteration      SOSCFMaxIt      ....   150
   Startup grad/error   SOSCFStart      ....  0.003300
 Level Shifting         CNVShift        .... on
   Level shift para.    LevelShift      ....    0.2500
   Turn off err/grad.   ShiftErr        ....    0.0010
 Zerner damping         CNVZerner       .... off
 Static damping         CNVDamp         .... on
   Fraction old density DampFac         ....    0.7000
   Max. Damping (<1)    DampMax         ....    0.9800
   Min. Damping (>=0)   DampMin         ....    0.0000
   Turn off err/grad.   DampErr         ....    0.1000
 Fernandez-Rico         CNVRico         .... off

SCF Procedure:
 Maximum # iterations   MaxIter         ....   125
 SCF integral mode      SCFMode         .... Direct
   Integral package                     .... LIBINT
 Reset frequeny         DirectResetFreq ....    20
 Integral Threshold     Thresh          ....  1.000e-10 Eh
 Primitive CutOff       TCut            ....  1.000e-11 Eh

Convergence Tolerance:
 Convergence Check Mode ConvCheckMode   .... Total+1el-Energy
 Energy Change          TolE            ....  1.000e-06 Eh
 1-El. energy change                    ....  1.000e-03 Eh
 Orbital Gradient       TolG            ....  5.000e-05
 Orbital Rotation angle TolX            ....  5.000e-05
 DIIS Error             TolErr          ....  1.000e-06


Diagonalization of the overlap matrix:
Smallest eigenvalue                        ... 8.413e-04
Time for diagonalization                   ...    0.011 sec
Threshold for overlap eigenvalues          ... 1.000e-08
Number of eigenvalues below threshold      ... 0
Time for construction of square roots      ...    0.002 sec
Total time needed                          ...    0.014 sec

-------------------
DFT GRID GENERATION
-------------------

General Integration Accuracy     IntAcc      ...  4.340
Radial Grid Type                 RadialGrid  ... Gauss-Chebyshev
Angular Grid (max. acc.)         AngularGrid ... Lebedev-110
Angular grid pruning method      GridPruning ... 3 (G Style)
Weight generation scheme         WeightScheme... Becke
Basis function cutoff            BFCut       ...    1.0000e-10
Integration weight cutoff        WCut        ...    1.0000e-14
Grids for H and He will be reduced by one unit

# of grid points (after initial pruning)     ...  18004 (   0.0 sec)
# of grid points (after weights+screening)   ...  16675 (   0.1 sec)
nearest neighbour list constructed           ...    0.0 sec
Grid point re-assignment to atoms done       ...    0.0 sec
Grid point division into batches done        ...    0.0 sec
Reduced shell lists constructed in    0.1 sec

Total number of grid points                  ...    16675
Total number of batches                      ...      267
Average number of points per batch           ...       62
Average number of grid points per atom       ...     1112
Average number of shells per batch           ...    55.29 (83.77%)
Average number of basis functions per batch  ...   116.64 (84.52%)
Average number of large shells per batch     ...    45.64 (82.54%)
Average number of large basis fcns per batch ...    94.75 (81.23%)
Maximum spatial batch extension              ...  19.78, 19.10, 19.24 au
Average spatial batch extension              ...   1.47,  1.23,  1.30 au

Time for grid setup =    0.134 sec

------------------------------
INITIAL GUESS: MODEL POTENTIAL
------------------------------
Loading Hartree-Fock densities                     ... done
Calculating cut-offs                               ... done
Setting up the integral package                    ... done
Initializing the effective Hamiltonian             ... done
Starting the Coulomb interaction                   ... done (   0.0 sec)
Reading the grid                                   ... done
Mapping shells                                     ... done
Starting the XC term evaluation                    ... done (   0.1 sec)
  promolecular density results
     # of electrons  =     51.992070437
     EX              =    -41.201503024
     EC              =     -1.717447244
     EX+EC           =    -42.918950268
Transforming the Hamiltonian                       ... done (   0.0 sec)
Diagonalizing the Hamiltonian                      ... done (   0.0 sec)
Back transforming the eigenvectors                 ... done (   0.0 sec)
Now organizing SCF variables                       ... done
                      ------------------
                      INITIAL GUESS DONE (   0.4 sec)
                      ------------------
--------------
SCF ITERATIONS
--------------
ITER       Energy         Delta-E        Max-DP      RMS-DP      [F,P]     Damp
               ***  Starting incremental Fock matrix formation  ***
  0   -307.8711135101   0.000000000000 0.07500674  0.00228007  0.1562490 0.7000
  1   -307.9419636810  -0.070850170875 0.04277961  0.00166213  0.0753700 0.7000
                               ***Turning on DIIS***
  2   -307.9684350412  -0.026471360260 0.06024508  0.00277306  0.0222860 0.0000
  3   -308.0051246564  -0.036689615198 0.03508488  0.00120305  0.0470929 0.0000
  4   -308.0174624147  -0.012337758317 0.01222692  0.00038174  0.0106422 0.0000
  5   -308.0180604826  -0.000598067864 0.00286145  0.00013900  0.0034068 0.0000
                      *** Initiating the SOSCF procedure ***
                           *** Shutting down DIIS ***
                      *** Re-Reading the Fockian *** 
                      *** Removing any level shift *** 
ITER      Energy       Delta-E        Grad      Rot      Max-DP    RMS-DP
  6   -308.01810632  -0.0000458340  0.000305  0.000305  0.001930  0.000087
               *** Restarting incremental Fock matrix formation ***
  7   -308.01811113  -0.0000048104  0.000418  0.003429  0.002512  0.000065
  8   -308.01809889   0.0000122355  0.001172  0.002553  0.001870  0.000047
  9   -308.01811303  -0.0000141377  0.000071  0.000199  0.000497  0.000014
 10   -308.01811254   0.0000004927  0.000152  0.000171  0.000374  0.000009
 11   -308.01811317  -0.0000006324  0.000029  0.000113  0.000132  0.000005
 12   -308.01811312   0.0000000514  0.000064  0.000081  0.000101  0.000004
                 **** Energy Check signals convergence ****
              ***Rediagonalizing the Fockian in SOSCF/NRSCF***

               *****************************************************
               *                     SUCCESS                       *
               *           SCF CONVERGED AFTER  13 CYCLES          *
               *****************************************************

Setting up the final grid:

General Integration Accuracy     IntAcc      ...  4.670
Radial Grid Type                 RadialGrid  ... Gauss-Chebyshev
Angular Grid (max. acc.)         AngularGrid ... Lebedev-302
Angular grid pruning method      GridPruning ... 3 (G Style)
Weight generation scheme         WeightScheme... Becke
Basis function cutoff            BFCut       ...    1.0000e-10
Integration weight cutoff        WCut        ...    1.0000e-14
Grids for H and He will be reduced by one unit

# of grid points (after initial pruning)     ...  70636 (   0.0 sec)
# of grid points (after weights+screening)   ...  64493 (   0.1 sec)
nearest neighbour list constructed           ...    0.0 sec
Grid point re-assignment to atoms done       ...    0.0 sec
Grid point division into batches done        ...    0.2 sec
Reduced shell lists constructed in    0.4 sec

Total number of grid points                  ...    64493
Total number of batches                      ...     1016
Average number of points per batch           ...       63
Average number of grid points per atom       ...     4300
Average number of shells per batch           ...    51.74 (78.40%)
Average number of basis functions per batch  ...   108.40 (78.55%)
Average number of large shells per batch     ...    41.48 (80.16%)
Average number of large basis fcns per batch ...    84.73 (78.16%)
Maximum spatial batch extension              ...  15.94, 15.65, 15.98 au
Average spatial batch extension              ...   0.93,  0.89,  0.94 au

Final grid set up in    0.5 sec
Final integration                            ... done (   0.4 sec)
Change in XC energy                          ...     0.000109464
Integrated number of electrons               ...    52.000039570
Previous integrated no of electrons          ...    51.997223684

----------------
TOTAL SCF ENERGY
----------------

Total Energy       :         -308.01800373 Eh           -8381.59599 eV

Components:
Nuclear Repulsion  :          297.93958009 Eh            8107.34814 eV
Electronic Energy  :         -605.95758382 Eh          -16488.94414 eV

One Electron Energy:        -1006.86456954 Eh          -27398.17783 eV
Two Electron Energy:          400.90698572 Eh           10909.23370 eV

Virial components:
Potential Energy   :         -613.17458273 Eh          -16685.32866 eV
Kinetic Energy     :          305.15657901 Eh            8303.73267 eV
Virial Ratio       :            2.00937691


DFT components:
N(Alpha)           :       26.000019785171 electrons
N(Beta)            :       26.000019785171 electrons
N(Total)           :       52.000039570342 electrons
E(X)               :      -41.980905627571 Eh       
E(C)               :       -1.729603460680 Eh       
E(XC)              :      -43.710509088251 Eh       

---------------
SCF CONVERGENCE
---------------

  Last Energy change         ...   -7.3626e-08  Tolerance :   1.0000e-06
  Last MAX-Density change    ...    4.4395e-05  Tolerance :   1.0000e-05
  Last RMS-Density change    ...    1.3506e-06  Tolerance :   1.0000e-06
  Last Orbital Gradient      ...    6.8700e-06  Tolerance :   5.0000e-05
  Last Orbital Rotation      ...    2.0845e-05  Tolerance :   5.0000e-05

             **** THE GBW FILE WAS UPDATED (3421.gbw) ****
             **** DENSITY FILE WAS UPDATED (3421.scfp.tmp) ****
             **** ENERGY FILE WAS UPDATED (3421.en.tmp) ****

                    ********************************
                    * MULLIKEN POPULATION ANALYSIS *
                    ********************************

-----------------------
MULLIKEN ATOMIC CHARGES
-----------------------
   0 C :    0.040748
   1 C :    0.088203
   2 O :   -0.250441
   3 C :    0.133340
   4 C :   -0.054180
   5 C :    0.038321
   6 C :   -0.077352
   7 H :    0.027146
   8 H :    0.017617
   9 H :    0.029264
  10 H :    0.018783
  11 H :    0.009425
  12 H :   -0.008360
  13 H :   -0.009828
  14 H :   -0.002685
Sum of atomic charges:   -0.0000000

--------------------------------
MULLIKEN REDUCED ORBITAL CHARGES
--------------------------------
  0 C s       :     2.971594  s :     2.971594
      pz      :     1.021213  p :     2.963651
      px      :     0.948857
      py      :     0.993580
      dz2     :     0.006555  d :     0.024007
      dxz     :     0.004094
      dyz     :     0.003110
      dx2y2   :     0.004893
      dxy     :     0.005356
  1 C s       :     3.041150  s :     3.041150
      pz      :     1.035380  p :     2.803998
      px      :     0.951667
      py      :     0.816951
      dz2     :     0.013869  d :     0.066649
      dxz     :     0.007889
      dyz     :     0.009571
      dx2y2   :     0.017935
      dxy     :     0.017385
  2 O s       :     3.733915  s :     3.733915
      pz      :     1.358370  p :     4.499928
      px      :     1.613208
      py      :     1.528350
      dz2     :     0.005530  d :     0.016599
      dxz     :     0.003015
      dyz     :     0.003308
      dx2y2   :     0.002271
      dxy     :     0.002474
  3 C s       :     3.099052  s :     3.099052
      pz      :     0.798048  p :     2.701600
      px      :     0.972277
      py      :     0.931275
      dz2     :     0.021896  d :     0.066008
      dxz     :     0.015318
      dyz     :     0.016399
      dx2y2   :     0.006047
      dxy     :     0.006348
  4 C s       :     3.123906  s :     3.123906
      pz      :     0.879773  p :     2.899334
      px      :     1.080895
      py      :     0.938666
      dz2     :     0.006809  d :     0.030940
      dxz     :     0.003075
      dyz     :     0.009413
      dx2y2   :     0.005142
      dxy     :     0.006500
  5 C s       :     3.123682  s :     3.123682
      pz      :     0.954047  p :     2.803252
      px      :     0.971287
      py      :     0.877918
      dz2     :     0.008442  d :     0.034745
      dxz     :     0.005728
      dyz     :     0.010175
      dx2y2   :     0.004700
      dxy     :     0.005700
  6 C s       :     3.173741  s :     3.173741
      pz      :     0.964411  p :     2.873041
      px      :     1.032459
      py      :     0.876170
      dz2     :     0.007743  d :     0.030570
      dxz     :     0.004520
      dyz     :     0.010262
      dx2y2   :     0.004186
      dxy     :     0.003859
  7 H s       :     0.949328  s :     0.949328
      pz      :     0.006590  p :     0.023526
      px      :     0.005518
      py      :     0.011418
  8 H s       :     0.958375  s :     0.958375
      pz      :     0.006752  p :     0.024009
      px      :     0.006928
      py      :     0.010328
  9 H s       :     0.946674  s :     0.946674
      pz      :     0.013814  p :     0.024062
      px      :     0.004712
      py      :     0.005537
 10 H s       :     0.961245  s :     0.961245
      pz      :     0.013230  p :     0.019972
      px      :     0.003976
      py      :     0.002767
 11 H s       :     0.968524  s :     0.968524
      pz      :     0.003541  p :     0.022051
      px      :     0.005438
      py      :     0.013072
 12 H s       :     0.984398  s :     0.984398
      pz      :     0.013377  p :     0.023962
      px      :     0.006915
      py      :     0.003670
 13 H s       :     0.986510  s :     0.986510
      pz      :     0.006074  p :     0.023319
      px      :     0.006253
      py      :     0.010991
 14 H s       :     0.979004  s :     0.979004
      pz      :     0.007016  p :     0.023681
      px      :     0.005629
      py      :     0.011037


                     *******************************
                     * LOEWDIN POPULATION ANALYSIS *
                     *******************************

----------------------
LOEWDIN ATOMIC CHARGES
----------------------
   0 C :   -0.070422
   1 C :    0.059893
   2 O :   -0.057682
   3 C :    0.052979
   4 C :   -0.123063
   5 C :   -0.028598
   6 C :   -0.063698
   7 H :    0.028767
   8 H :    0.033386
   9 H :    0.032572
  10 H :    0.027639
  11 H :    0.021997
  12 H :    0.030988
  13 H :    0.029400
  14 H :    0.025843

-------------------------------
LOEWDIN REDUCED ORBITAL CHARGES
-------------------------------
  0 C s       :     2.847212  s :     2.847212
      pz      :     1.074116  p :     3.155776
      px      :     1.018164
      py      :     1.063496
      dz2     :     0.019039  d :     0.067434
      dxz     :     0.009572
      dyz     :     0.008622
      dx2y2   :     0.015937
      dxy     :     0.014265
  1 C s       :     2.845696  s :     2.845696
      pz      :     1.035465  p :     2.940428
      px      :     0.996335
      py      :     0.908628
      dz2     :     0.035971  d :     0.153983
      dxz     :     0.014901
      dyz     :     0.020728
      dx2y2   :     0.045145
      dxy     :     0.037237
  2 O s       :     3.446283  s :     3.446283
      pz      :     1.418728  p :     4.579973
      px      :     1.611759
      py      :     1.549486
      dz2     :     0.011324  d :     0.031427
      dxz     :     0.005766
      dyz     :     0.006099
      dx2y2   :     0.003615
      dxy     :     0.004622
  3 C s       :     2.860908  s :     2.860908
      pz      :     0.890797  p :     2.928390
      px      :     0.963232
      py      :     1.074360
      dz2     :     0.052488  d :     0.157724
      dxz     :     0.032847
      dyz     :     0.043043
      dx2y2   :     0.015129
      dxy     :     0.014216
  4 C s       :     2.858237  s :     2.858237
      pz      :     1.046683  p :     3.178036
      px      :     1.073356
      py      :     1.057996
      dz2     :     0.019800  d :     0.086791
      dxz     :     0.006885
      dyz     :     0.029726
      dx2y2   :     0.015892
      dxy     :     0.014488
  5 C s       :     2.857342  s :     2.857342
      pz      :     1.059398  p :     3.076809
      px      :     0.991203
      py      :     1.026209
      dz2     :     0.023294  d :     0.094447
      dxz     :     0.015057
      dyz     :     0.030005
      dx2y2   :     0.012278
      dxy     :     0.013814
  6 C s       :     2.872510  s :     2.872510
      pz      :     1.059923  p :     3.106851
      px      :     1.030252
      py      :     1.016675
      dz2     :     0.021015  d :     0.084337
      dxz     :     0.011840
      dyz     :     0.029700
      dx2y2   :     0.011261
      dxy     :     0.010522
  7 H s       :     0.903667  s :     0.903667
      pz      :     0.017008  p :     0.067565
      px      :     0.017424
      py      :     0.033133
  8 H s       :     0.899132  s :     0.899132
      pz      :     0.017062  p :     0.067481
      px      :     0.021227
      py      :     0.029192
  9 H s       :     0.899514  s :     0.899514
      pz      :     0.040759  p :     0.067914
      px      :     0.014458
      py      :     0.012696
 10 H s       :     0.906970  s :     0.906970
      pz      :     0.042210  p :     0.065392
      px      :     0.013089
      py      :     0.010093
 11 H s       :     0.909903  s :     0.909903
      pz      :     0.012519  p :     0.068100
      px      :     0.016034
      py      :     0.039547
 12 H s       :     0.896885  s :     0.896885
      pz      :     0.038770  p :     0.072127
      px      :     0.021312
      py      :     0.012045
 13 H s       :     0.901951  s :     0.901951
      pz      :     0.017435  p :     0.068649
      px      :     0.018124
      py      :     0.033089
 14 H s       :     0.901926  s :     0.901926
      pz      :     0.020020  p :     0.072231
      px      :     0.017317
      py      :     0.034894


                      *****************************
                      * MAYER POPULATION ANALYSIS *
                      *****************************

  NA   - Mulliken gross atomic population
  ZA   - Total nuclear charge
  QA   - Mulliken gross atomic charge
  VA   - Mayer's total valence
  BVA  - Mayer's bonded valence
  FA   - Mayer's free valence

  ATOM       NA         ZA         QA         VA         BVA        FA
  0 C      5.9593     6.0000     0.0407     3.9097     3.9097    -0.0000
  1 C      5.9118     6.0000     0.0882     4.0920     4.0920    -0.0000
  2 O      8.2504     8.0000    -0.2504     2.2893     2.2893     0.0000
  3 C      5.8667     6.0000     0.1333     3.9641     3.9641    -0.0000
  4 C      6.0542     6.0000    -0.0542     3.8595     3.8595     0.0000
  5 C      5.9617     6.0000     0.0383     3.9538     3.9538     0.0000
  6 C      6.0774     6.0000    -0.0774     3.9260     3.9260     0.0000
  7 H      0.9729     1.0000     0.0271     0.9953     0.9953    -0.0000
  8 H      0.9824     1.0000     0.0176     0.9986     0.9986    -0.0000
  9 H      0.9707     1.0000     0.0293     1.0065     1.0065    -0.0000
 10 H      0.9812     1.0000     0.0188     0.9742     0.9742    -0.0000
 11 H      0.9906     1.0000     0.0094     0.9896     0.9896     0.0000
 12 H      1.0084     1.0000    -0.0084     0.9854     0.9854     0.0000
 13 H      1.0098     1.0000    -0.0098     0.9795     0.9795     0.0000
 14 H      1.0027     1.0000    -0.0027     0.9867     0.9867    -0.0000

  Mayer bond orders larger than 0.1
B(  0-C ,  1-C ) :   1.0732 B(  0-C ,  7-H ) :   0.9508 B(  0-C ,  8-H ) :   0.9507 
B(  0-C ,  9-H ) :   0.9563 B(  1-C ,  2-O ) :   0.9389 B(  1-C ,  6-C ) :   1.0268 
B(  1-C , 10-H ) :   0.9164 B(  2-O ,  3-C ) :   1.1739 B(  3-C ,  4-C ) :   1.6702 
B(  3-C , 11-H ) :   0.9695 B(  4-C ,  5-C ) :   1.1159 B(  4-C , 12-H ) :   0.9611 
B(  5-C ,  6-C ) :   1.7995 B(  5-C , 13-H ) :   0.9726 B(  6-C , 14-H ) :   0.9607 



 *********************************** NBO 6.0 ***********************************
             N A T U R A L   A T O M I C   O R B I T A L   A N D
          N A T U R A L   B O N D   O R B I T A L   A N A L Y S I S
 ***************************** Kiya KiyaLu (100703) ****************************
  (c) Copyright 1996-2015 Board of Regents of the University of Wisconsin System
      on behalf of the Theoretical Chemistry Institute.  All rights reserved.

          Cite this program as:

          NBO 6.0.  E. D. Glendening, J. K. Badenhoop, A. E. Reed,
          J. E. Carpenter, J. A. Bohmann, C. M. Morales, C. R. Landis,
          and F. Weinhold (Theoretical Chemistry Institute, University
          of Wisconsin, Madison, WI, 2013); http://nbo6.chem.wisc.edu/

       /NPA    / : Natural Population Analysis
       /NBO    / : Natural Bond Orbital Analysis
       /AONBO  / : Write the AO to NBO transformation to lfn77
       /FILE   / : Set to 3421

 Filename set to 3421

 Job title:  *** NBO job generated by orca_scf

 Warning: MOs are non-orthogonal; program will continue

 Warning: -2513.83785 electrons reside outside the linearly independent MO space


 NATURAL POPULATIONS:  Natural atomic orbital occupancies

  NAO Atom No lang   Type(AO)    Occupancy      Energy
 -------------------------------------------------------
   1    C  1  s      Cor( 1s)     1.99917      -9.77089
   2    C  1  s      Val( 2s)     1.09840      -0.21949
   3    C  1  s      Ryd( 3s)     0.00084       0.81748
   4    C  1  px     Val( 2p)     1.10045      -0.07447
   5    C  1  px     Ryd( 3p)     0.00172       0.47933
   6    C  1  py     Val( 2p)     1.23211      -0.06849
   7    C  1  py     Ryd( 3p)     0.00227       0.60558
   8    C  1  pz     Val( 2p)     1.23499      -0.06804
   9    C  1  pz     Ryd( 3p)     0.00171       0.58057
  10    C  1  dxy    Ryd( 3d)     0.00049       2.19226
  11    C  1  dxz    Ryd( 3d)     0.00033       2.10663
  12    C  1  dyz    Ryd( 3d)     0.00036       2.17915
  13    C  1  dx2y2  Ryd( 3d)     0.00049       2.19475
  14    C  1  dz2    Ryd( 3d)     0.00061       2.36160

  15    C  2  s      Cor( 1s)     1.99886      -9.84201
  16    C  2  s      Val( 2s)     0.93216      -0.18642
  17    C  2  s      Ryd( 3s)     0.00099       0.80658
  18    C  2  px     Val( 2p)     0.97817      -0.08598
  19    C  2  px     Ryd( 3p)     0.00287       0.56424
  20    C  2  py     Val( 2p)     0.84010      -0.07509
  21    C  2  py     Ryd( 3p)     0.00517       0.56882
  22    C  2  pz     Val( 2p)     1.15335      -0.08300
  23    C  2  pz     Ryd( 3p)     0.00565       0.79276
  24    C  2  dxy    Ryd( 3d)     0.00163       2.10235
  25    C  2  dxz    Ryd( 3d)     0.00083       2.03121
  26    C  2  dyz    Ryd( 3d)     0.00095       2.05457
  27    C  2  dx2y2  Ryd( 3d)     0.00172       2.11320
  28    C  2  dz2    Ryd( 3d)     0.00120       2.42425

  29    O  3  s      Cor( 1s)     1.99967     -18.58824
  30    O  3  s      Val( 2s)     1.58238      -0.77853
  31    O  3  s      Ryd( 3s)     0.00076       1.48685
  32    O  3  px     Val( 2p)     1.70468      -0.26815
  33    O  3  px     Ryd( 3p)     0.00217       1.16428
  34    O  3  py     Val( 2p)     1.66851      -0.28212
  35    O  3  py     Ryd( 3p)     0.00212       1.24401
  36    O  3  pz     Val( 2p)     1.54871      -0.29295
  37    O  3  pz     Ryd( 3p)     0.00126       1.25840
  38    O  3  dxy    Ryd( 3d)     0.00084       2.75845
  39    O  3  dxz    Ryd( 3d)     0.00087       2.76982
  40    O  3  dyz    Ryd( 3d)     0.00104       2.76036
  41    O  3  dx2y2  Ryd( 3d)     0.00071       2.66337
  42    O  3  dz2    Ryd( 3d)     0.00140       3.01637

  43    C  4  s      Cor( 1s)     1.99880      -9.82945
  44    C  4  s      Val( 2s)     0.90410      -0.14374
  45    C  4  s      Ryd( 3s)     0.00139       0.51046
  46    C  4  px     Val( 2p)     0.96527      -0.11265
  47    C  4  px     Ryd( 3p)     0.00251       0.53525
  48    C  4  py     Val( 2p)     1.16576      -0.04592
  49    C  4  py     Ryd( 3p)     0.00473       0.76884
  50    C  4  pz     Val( 2p)     0.76706      -0.02319
  51    C  4  pz     Ryd( 3p)     0.00827       0.55498
  52    C  4  dxy    Ryd( 3d)     0.00069       1.93653
  53    C  4  dxz    Ryd( 3d)     0.00180       1.95434
  54    C  4  dyz    Ryd( 3d)     0.00138       2.30288
  55    C  4  dx2y2  Ryd( 3d)     0.00075       2.21329
  56    C  4  dz2    Ryd( 3d)     0.00196       2.20141

  57    C  5  s      Cor( 1s)     1.99891      -9.75384
  58    C  5  s      Val( 2s)     0.95365      -0.12974
  59    C  5  s      Ryd( 3s)     0.00154       0.52636
  60    C  5  px     Val( 2p)     1.13440      -0.09321
  61    C  5  px     Ryd( 3p)     0.00284       0.59664
  62    C  5  py     Val( 2p)     1.07732      -0.03913
  63    C  5  py     Ryd( 3p)     0.00355       0.60626
  64    C  5  pz     Val( 2p)     1.19863      -0.04768
  65    C  5  pz     Ryd( 3p)     0.00401       0.88828
  66    C  5  dxy    Ryd( 3d)     0.00062       1.91656
  67    C  5  dxz    Ryd( 3d)     0.00045       2.00067
  68    C  5  dyz    Ryd( 3d)     0.00070       2.33102
  69    C  5  dx2y2  Ryd( 3d)     0.00055       2.21083
  70    C  5  dz2    Ryd( 3d)     0.00053       2.23602

  71    C  6  s      Cor( 1s)     1.99885      -9.76316
  72    C  6  s      Val( 2s)     0.94377      -0.12483
  73    C  6  s      Ryd( 3s)     0.00118       0.53057
  74    C  6  px     Val( 2p)     1.03833      -0.08767
  75    C  6  px     Ryd( 3p)     0.00160       0.58859
  76    C  6  py     Val( 2p)     1.13950      -0.04074
  77    C  6  py     Ryd( 3p)     0.00601       0.85914
  78    C  6  pz     Val( 2p)     1.09791      -0.04907
  79    C  6  pz     Ryd( 3p)     0.00348       0.65652
  80    C  6  dxy    Ryd( 3d)     0.00053       1.99039
  81    C  6  dxz    Ryd( 3d)     0.00070       2.10992
  82    C  6  dyz    Ryd( 3d)     0.00065       2.29377
  83    C  6  dx2y2  Ryd( 3d)     0.00053       2.12406
  84    C  6  dz2    Ryd( 3d)     0.00075       2.18267

  85    C  7  s      Cor( 1s)     1.99886      -9.76075
  86    C  7  s      Val( 2s)     0.94856      -0.13815
  87    C  7  s      Ryd( 3s)     0.00199       0.58052
  88    C  7  px     Val( 2p)     1.06914      -0.08898
  89    C  7  px     Ryd( 3p)     0.00475       0.56940
  90    C  7  py     Val( 2p)     1.12795      -0.04738
  91    C  7  py     Ryd( 3p)     0.00464       0.86014
  92    C  7  pz     Val( 2p)     1.10370      -0.04950
  93    C  7  pz     Ryd( 3p)     0.00285       0.64530
  94    C  7  dxy    Ryd( 3d)     0.00033       1.97982
  95    C  7  dxz    Ryd( 3d)     0.00057       2.09536
  96    C  7  dyz    Ryd( 3d)     0.00067       2.30742
  97    C  7  dx2y2  Ryd( 3d)     0.00050       2.10082
  98    C  7  dz2    Ryd( 3d)     0.00075       2.16086

  99    H  8  s      Val( 1s)     0.76808       0.07043
 100    H  8  s      Ryd( 2s)     0.00279       0.32988
 101    H  8  px     Ryd( 2p)     0.00019       1.78839
 102    H  8  py     Ryd( 2p)     0.00063       2.14978
 103    H  8  pz     Ryd( 2p)     0.00023       1.82810

 104    H  9  s      Val( 1s)     0.76572       0.06217
 105    H  9  s      Ryd( 2s)     0.00167       0.33573
 106    H  9  px     Ryd( 2p)     0.00032       1.85716
 107    H  9  py     Ryd( 2p)     0.00053       2.07807
 108    H  9  pz     Ryd( 2p)     0.00025       1.81957

 109    H 10  s      Val( 1s)     0.76779       0.07152
 110    H 10  s      Ryd( 2s)     0.00151       0.36909
 111    H 10  px     Ryd( 2p)     0.00013       1.70703
 112    H 10  py     Ryd( 2p)     0.00013       1.72226
 113    H 10  pz     Ryd( 2p)     0.00088       2.29057

 114    H 11  s      Val( 1s)     0.76832       0.07833
 115    H 11  s      Ryd( 2s)     0.00301       0.30624
 116    H 11  px     Ryd( 2p)     0.00010       1.76594
 117    H 11  py     Ryd( 2p)     0.00007       1.70705
 118    H 11  pz     Ryd( 2p)     0.00113       2.22892

 119    H 12  s      Val( 1s)     0.79434       0.05981
 120    H 12  s      Ryd( 2s)     0.00165       0.29634
 121    H 12  px     Ryd( 2p)     0.00026       1.64313
 122    H 12  py     Ryd( 2p)     0.00084       2.22845
 123    H 12  pz     Ryd( 2p)     0.00018       1.86232

 124    H 13  s      Val( 1s)     0.76002       0.08371
 125    H 13  s      Ryd( 2s)     0.00167       0.30849
 126    H 13  px     Ryd( 2p)     0.00033       1.70174
 127    H 13  py     Ryd( 2p)     0.00007       1.88407
 128    H 13  pz     Ryd( 2p)     0.00083       2.26856

 129    H 14  s      Val( 1s)     0.76663       0.08014
 130    H 14  s      Ryd( 2s)     0.00185       0.31003
 131    H 14  px     Ryd( 2p)     0.00029       1.73102
 132    H 14  py     Ryd( 2p)     0.00065       2.18848
 133    H 14  pz     Ryd( 2p)     0.00024       1.92420

 134    H 15  s      Val( 1s)     0.76975       0.07674
 135    H 15  s      Ryd( 2s)     0.00183       0.31225
 136    H 15  px     Ryd( 2p)     0.00021       1.68817
 137    H 15  py     Ryd( 2p)     0.00068       2.19434
 138    H 15  pz     Ryd( 2p)     0.00033       1.96115

   1 low occupancy (<1.9990e) core orbital  found on  C  2
   1 low occupancy (<1.9990e) core orbital  found on  C  4
   1 low occupancy (<1.9990e) core orbital  found on  C  5
   1 low occupancy (<1.9990e) core orbital  found on  C  6
   1 low occupancy (<1.9990e) core orbital  found on  C  7


 Summary of Natural Population Analysis:

                                     Natural Population
             Natural    ---------------------------------------------
  Atom No    Charge        Core      Valence    Rydberg      Total
 --------------------------------------------------------------------
    C  1   -0.67393      1.99917     4.66595    0.00881     6.67393
    C  2    0.07636      1.99886     3.90378    0.02100     5.92364
    O  3   -0.51511      1.99967     6.50428    0.01117     8.51511
    C  4    0.17553      1.99880     3.80219    0.02348     5.82447
    C  5   -0.37770      1.99891     4.36400    0.01479     6.37770
    C  6   -0.23379      1.99885     4.21952    0.01542     6.23379
    C  7   -0.26526      1.99886     4.24936    0.01704     6.26526
    H  8    0.22808      0.00000     0.76808    0.00384     0.77192
    H  9    0.23151      0.00000     0.76572    0.00277     0.76849
    H 10    0.22956      0.00000     0.76779    0.00265     0.77044
    H 11    0.22737      0.00000     0.76832    0.00432     0.77263
    H 12    0.20273      0.00000     0.79434    0.00293     0.79727
    H 13    0.23709      0.00000     0.76002    0.00289     0.76291
    H 14    0.23035      0.00000     0.76663    0.00303     0.76965
    H 15    0.22720      0.00000     0.76975    0.00305     0.77280
 ====================================================================
 * Total *  0.00000     13.99312    37.86971    0.13717    52.00000

                                 Natural Population
 ---------------------------------------------------------
   Core                      13.99312 ( 99.9509% of   14)
   Valence                   37.86971 ( 99.6571% of   38)
   Natural Minimal Basis     51.86283 ( 99.7362% of   52)
   Natural Rydberg Basis      0.13717 (  0.2638% of   52)
 ---------------------------------------------------------

    Atom No         Natural Electron Configuration
 ----------------------------------------------------------------------------
      C  1      [core]2s( 1.10)2p( 3.57)3p( 0.01)
      C  2      [core]2s( 0.93)2p( 2.97)3p( 0.01)3d( 0.01)
      O  3      [core]2s( 1.58)2p( 4.92)3p( 0.01)
      C  4      [core]2s( 0.90)2p( 2.90)3p( 0.02)3d( 0.01)
      C  5      [core]2s( 0.95)2p( 3.41)3p( 0.01)
      C  6      [core]2s( 0.94)2p( 3.28)3p( 0.01)
      C  7      [core]2s( 0.95)2p( 3.30)3p( 0.01)
      H  8            1s( 0.77)
      H  9            1s( 0.77)
      H 10            1s( 0.77)
      H 11            1s( 0.77)
      H 12            1s( 0.79)
      H 13            1s( 0.76)
      H 14            1s( 0.77)
      H 15            1s( 0.77)


 NATURAL BOND ORBITAL ANALYSIS:

                            Occupancies       Lewis Structure    Low   High
         Max    Occ     -------------------  -----------------   occ   occ
  Cycle  Ctr   Thresh    Lewis   non-Lewis     CR  BD  nC  LP    (L)   (NL)
 ============================================================================
    1     2     1.90    50.47021   1.52979      7  18   0   1     1      2
    2     2     1.89    51.23913   0.76087      7  17   0   2     1      2
    3     2     1.83    51.23913   0.76087      7  17   0   2     1      2
    4     2     1.81    51.23913   0.76087      7  17   0   2     1      2
    5     2     1.78    51.24001   0.75999      7  17   0   2     0      2
 ----------------------------------------------------------------------------

 Structure accepted: No low occupancy Lewis orbitals

 -------------------------------------------------------
   Core                     13.99312 ( 99.951% of  14)
   Valence Lewis            37.24689 ( 98.018% of  38)
  ==================      =============================
   Total Lewis              51.24001 ( 98.538% of  52)
  -----------------------------------------------------
   Valence non-Lewis         0.66746 (  1.284% of  52)
   Rydberg non-Lewis         0.09253 (  0.178% of  52)
  ==================      =============================
   Total non-Lewis           0.75999 (  1.462% of  52)
 -------------------------------------------------------


     (Occupancy)   Bond orbital / Coefficients / Hybrids
 ------------------ Lewis ------------------------------------------------------
   1. (1.99917) CR ( 1) C  1            s(100.00%)
                                         1.0000  0.0000  0.0000  0.0000  0.0000
                                         0.0000  0.0000  0.0000  0.0000  0.0000
                                         0.0000  0.0000  0.0000  0.0000
   2. (1.99886) CR ( 1) C  2            s(100.00%)
                                         1.0000  0.0000  0.0000  0.0000  0.0000
                                         0.0000  0.0000  0.0000  0.0000  0.0000
                                         0.0000  0.0000  0.0000  0.0000
   3. (1.99967) CR ( 1) O  3            s(100.00%)
                                         1.0000  0.0000  0.0000  0.0000  0.0000
                                         0.0000  0.0000  0.0000  0.0000  0.0000
                                         0.0000  0.0000  0.0000  0.0000
   4. (1.99880) CR ( 1) C  4            s(100.00%)
                                         1.0000  0.0000  0.0000  0.0000  0.0000
                                         0.0000  0.0000  0.0000  0.0000  0.0000
                                         0.0000  0.0000  0.0000  0.0000
   5. (1.99891) CR ( 1) C  5            s(100.00%)
                                         1.0000  0.0000  0.0000  0.0000  0.0000
                                         0.0000  0.0000  0.0000  0.0000  0.0000
                                         0.0000  0.0000  0.0000  0.0000
   6. (1.99885) CR ( 1) C  6            s(100.00%)
                                         1.0000  0.0000  0.0000  0.0000  0.0000
                                         0.0000  0.0000  0.0000  0.0000  0.0000
                                         0.0000  0.0000  0.0000  0.0000
   7. (1.99886) CR ( 1) C  7            s(100.00%)
                                         1.0000  0.0000  0.0000  0.0000  0.0000
                                         0.0000  0.0000  0.0000  0.0000  0.0000
                                         0.0000  0.0000  0.0000  0.0000
   8. (1.95850) LP ( 1) O  3            s( 35.64%)p 1.80( 64.32%)d 0.00(  0.04%)
                                         0.0000  0.5970 -0.0036  0.0414 -0.0011
                                         0.6447 -0.0066  0.4751 -0.0034 -0.0010
                                        -0.0034 -0.0184  0.0098 -0.0013
   9. (1.78808) LP ( 2) O  3            s(  0.27%)p99.99( 99.67%)d 0.23(  0.06%)
                                         0.0000  0.0516  0.0007  0.8887 -0.0029
                                        -0.3331  0.0004  0.3099  0.0024 -0.0135
                                        -0.0169  0.0008 -0.0070 -0.0092
  10. (1.98166) BD ( 1) C  1- C  2
               ( 49.71%)   0.7051* C  1 s( 29.60%)p 2.38( 70.36%)d 0.00(  0.04%)
                                         0.0000  0.5441  0.0027  0.8170 -0.0006
                                        -0.0767  0.0097  0.1736  0.0062 -0.0031
                                         0.0066 -0.0011  0.0157 -0.0084
               ( 50.29%)   0.7091* C  2 s( 28.96%)p 2.45( 71.00%)d 0.00(  0.04%)
                                         0.0000  0.5381  0.0019 -0.8150 -0.0093
                                         0.1087  0.0080 -0.1828  0.0209 -0.0041
                                         0.0083 -0.0001  0.0149 -0.0081
  11. (1.98338) BD ( 1) C  1- H  8
               ( 61.50%)   0.7842* C  1 s( 23.50%)p 3.25( 76.46%)d 0.00(  0.04%)
                                         0.0000  0.4848  0.0027 -0.3252 -0.0098
                                         0.7378 -0.0057  0.3382 -0.0068 -0.0085
                                        -0.0049  0.0121 -0.0101 -0.0051
               ( 38.50%)   0.6205* H  8 s( 99.91%)p 0.00(  0.09%)
                                         0.9995 -0.0024  0.0116 -0.0263 -0.0112
  12. (1.97673) BD ( 1) C  1- H  9
               ( 61.42%)   0.7837* C  1 s( 23.18%)p 3.31( 76.78%)d 0.00(  0.04%)
                                         0.0000  0.4814 -0.0001 -0.4545 -0.0149
                                        -0.6701  0.0053  0.3346 -0.0035  0.0119
                                        -0.0059 -0.0118 -0.0076 -0.0054
               ( 38.58%)   0.6211* H  9 s( 99.91%)p 0.00(  0.09%)
                                         0.9995 -0.0007  0.0170  0.0230 -0.0108
  13. (1.98569) BD ( 1) C  1- H 10
               ( 61.57%)   0.7847* C  1 s( 23.67%)p 3.22( 76.29%)d 0.00(  0.03%)
                                         0.0000  0.4865 -0.0024 -0.1395 -0.0169
                                         0.0140  0.0034 -0.8620  0.0031  0.0007
                                         0.0029  0.0002  0.0009  0.0181
               ( 38.43%)   0.6199* H 10 s( 99.89%)p 0.00(  0.11%)
                                         0.9995 -0.0016  0.0057 -0.0002  0.0325
  14. (1.98567) BD ( 1) C  2- O  3
               ( 30.85%)   0.5555* C  2 s( 18.16%)p 4.49( 81.61%)d 0.01(  0.23%)
                                         0.0000  0.4259  0.0132  0.4492  0.0182
                                         0.7121  0.0399 -0.3232  0.0274  0.0327
                                        -0.0164 -0.0239 -0.0145 -0.0142
               ( 69.15%)   0.8315* O  3 s( 30.32%)p 2.30( 69.61%)d 0.00(  0.07%)
                                         0.0000  0.5507 -0.0021 -0.3852 -0.0016
                                        -0.6871  0.0067  0.2745  0.0143  0.0180
                                        -0.0016 -0.0004 -0.0147 -0.0121
  15. (1.97475) BD ( 1) C  2- C  7
               ( 50.92%)   0.7136* C  2 s( 29.82%)p 2.35( 70.14%)d 0.00(  0.04%)
                                         0.0000  0.5460 -0.0097  0.3421  0.0035
                                        -0.6905 -0.0108 -0.3261  0.0333 -0.0113
                                        -0.0061  0.0121 -0.0083 -0.0053
               ( 49.08%)   0.7006* C  7 s( 32.01%)p 2.12( 67.94%)d 0.00(  0.05%)
                                         0.0000  0.5658 -0.0022 -0.3078  0.0020
                                         0.6809 -0.0151  0.3463  0.0296 -0.0114
                                        -0.0071  0.0085 -0.0142 -0.0057
  16. (1.96976) BD ( 1) C  2- H 11
               ( 61.77%)   0.7860* C  2 s( 22.92%)p 3.36( 77.04%)d 0.00(  0.04%)
                                         0.0000  0.4788  0.0023  0.1247  0.0121
                                         0.0292  0.0133  0.8679 -0.0198 -0.0017
                                         0.0056  0.0020  0.0006  0.0180
               ( 38.23%)   0.6183* H 11 s( 99.86%)p 0.00(  0.14%)
                                         0.9993 -0.0059 -0.0048 -0.0007 -0.0368
  17. (1.99120) BD ( 1) O  3- C  4
               ( 68.65%)   0.8286* O  3 s( 33.75%)p 1.96( 66.17%)d 0.00(  0.08%)
                                         0.0000  0.5809  0.0099  0.2437  0.0099
                                         0.0184  0.0132 -0.7756 -0.0101 -0.0006
                                        -0.0101  0.0090 -0.0005  0.0255
               ( 31.35%)   0.5599* C  4 s( 25.44%)p 2.92( 74.30%)d 0.01(  0.26%)
                                         0.0000  0.5040  0.0183 -0.2587 -0.0042
                                        -0.0304  0.0489  0.8182  0.0566  0.0020
                                        -0.0274 -0.0035  0.0029  0.0432
  18. (1.98550) BD ( 1) C  4- C  5
               ( 49.23%)   0.7016* C  4 s( 43.19%)p 1.31( 56.76%)d 0.00(  0.05%)
                                         0.0000  0.6572 -0.0007 -0.0139  0.0166
                                        -0.6169  0.0149 -0.4306 -0.0314 -0.0003
                                        -0.0024  0.0157 -0.0162 -0.0021
               ( 50.77%)   0.7126* C  5 s( 36.15%)p 1.76( 63.79%)d 0.00(  0.06%)
                                         0.0000  0.6011  0.0144 -0.2077  0.0081
                                         0.6722  0.0370  0.3759 -0.0142 -0.0062
                                        -0.0073  0.0173 -0.0149  0.0017
  19. (1.89703) BD ( 2) C  4- C  5
               ( 45.47%)   0.6743* C  4 s(  0.36%)p99.99( 99.57%)d 0.19(  0.07%)
                                         0.0000  0.0582  0.0155  0.9528 -0.0201
                                        -0.1414 -0.0005  0.2598 -0.0022 -0.0225
                                        -0.0113 -0.0050 -0.0003 -0.0058
               ( 54.53%)   0.7385* C  5 s(  0.25%)p99.99( 99.70%)d 0.21(  0.05%)
                                         0.0000  0.0489  0.0101  0.9356 -0.0219
                                         0.0525  0.0082  0.3441 -0.0017  0.0146
                                         0.0139  0.0057 -0.0040  0.0090
  20. (1.97701) BD ( 1) C  4- H 12
               ( 60.47%)   0.7776* C  4 s( 30.86%)p 2.24( 69.11%)d 0.00(  0.03%)
                                         0.0000  0.5554 -0.0088  0.1532 -0.0077
                                         0.7725 -0.0042 -0.2654  0.0196  0.0058
                                         0.0001 -0.0070 -0.0139 -0.0085
               ( 39.53%)   0.6287* H 12 s( 99.89%)p 0.00(  0.11%)
                                         0.9994 -0.0034 -0.0076 -0.0297  0.0126
  21. (1.97000) BD ( 1) C  5- C  6
               ( 49.97%)   0.7069* C  5 s( 34.07%)p 1.93( 65.88%)d 0.00(  0.04%)
                                         0.0000  0.5837 -0.0005 -0.1077  0.0126
                                        -0.7356 -0.0214  0.3232 -0.0317  0.0029
                                        -0.0047 -0.0133 -0.0147  0.0012
               ( 50.03%)   0.7073* C  6 s( 33.49%)p 1.98( 66.46%)d 0.00(  0.04%)
                                         0.0000  0.5787  0.0030  0.0747  0.0152
                                         0.6932 -0.0168 -0.4208 -0.0307  0.0010
                                        -0.0041 -0.0124 -0.0162 -0.0027
  22. (1.97227) BD ( 1) C  5- H 13
               ( 61.88%)   0.7867* C  5 s( 29.42%)p 2.40( 70.55%)d 0.00(  0.03%)
                                         0.0000  0.5423 -0.0118  0.2624 -0.0010
                                         0.0420 -0.0003 -0.7968  0.0001  0.0014
                                        -0.0093 -0.0031 -0.0011  0.0123
               ( 38.12%)   0.6174* H 13 s( 99.90%)p 0.00(  0.10%)
                                         0.9995 -0.0016 -0.0102 -0.0028  0.0299
  23. (1.97729) BD ( 1) C  6- C  7
               ( 50.24%)   0.7088* C  6 s( 38.34%)p 1.61( 61.60%)d 0.00(  0.06%)
                                         0.0000  0.6191  0.0128 -0.3163  0.0019
                                        -0.0491 -0.0397  0.7154  0.0120 -0.0014
                                        -0.0165  0.0002 -0.0007  0.0171
               ( 49.76%)   0.7054* C  7 s( 38.76%)p 1.58( 61.19%)d 0.00(  0.05%)
                                         0.0000  0.6223  0.0167  0.3386  0.0153
                                        -0.0062 -0.0383 -0.7037 -0.0183  0.0000
                                        -0.0159 -0.0028 -0.0005  0.0167
  24. (1.92284) BD ( 2) C  6- C  7
               ( 48.49%)   0.6964* C  6 s(  0.01%)p99.99( 99.93%)d 5.01(  0.06%)
                                         0.0000  0.0106 -0.0029 -0.8939  0.0141
                                        -0.1650  0.0030 -0.4156  0.0021 -0.0016
                                        -0.0155 -0.0053  0.0098 -0.0156
               ( 51.51%)   0.7177* C  7 s(  0.00%)p 1.00( 99.94%)d 0.00(  0.06%)
                                         0.0000 -0.0021 -0.0030 -0.8856  0.0223
                                        -0.1820  0.0004 -0.4260  0.0003 -0.0052
                                         0.0145  0.0020 -0.0070  0.0163
  25. (1.97484) BD ( 1) C  6- H 14
               ( 61.71%)   0.7856* C  6 s( 28.02%)p 2.57( 71.95%)d 0.00(  0.03%)
                                         0.0000  0.5292 -0.0138  0.3072 -0.0022
                                        -0.6989  0.0051 -0.3696  0.0041 -0.0085
                                        -0.0052  0.0094 -0.0089 -0.0037
               ( 38.29%)   0.6188* H 14 s( 99.90%)p 0.00(  0.10%)
                                         0.9995 -0.0025 -0.0114  0.0267  0.0127
  26. (1.97469) BD ( 1) C  7- H 15
               ( 61.53%)   0.7844* C  7 s( 29.07%)p 2.44( 70.90%)d 0.00(  0.03%)
                                         0.0000  0.5391 -0.0113 -0.0714  0.0045
                                        -0.7087 -0.0060  0.4489 -0.0020  0.0017
                                        -0.0026 -0.0125 -0.0105 -0.0014
               ( 38.47%)   0.6202* H 15 s( 99.90%)p 0.00(  0.10%)
                                         0.9995 -0.0027  0.0016  0.0276 -0.0163
 ---------------- non-Lewis ----------------------------------------------------
  27. (0.03554) BD*( 1) C  1- C  2
               ( 50.29%)   0.7091* C  1 s( 29.60%)p 2.38( 70.36%)d 0.00(  0.04%)
                                         0.0000  0.5441  0.0027  0.8170 -0.0006
                                        -0.0767  0.0097  0.1736  0.0062 -0.0031
                                         0.0066 -0.0011  0.0157 -0.0084
               ( 49.71%)  -0.7051* C  2 s( 28.96%)p 2.45( 71.00%)d 0.00(  0.04%)
                                         0.0000  0.5381  0.0019 -0.8150 -0.0093
                                         0.1087  0.0080 -0.1828  0.0209 -0.0041
                                         0.0083 -0.0001  0.0149 -0.0081
  28. (0.00855) BD*( 1) C  1- H  8
               ( 38.50%)   0.6205* C  1 s( 23.50%)p 3.25( 76.46%)d 0.00(  0.04%)
                                         0.0000 -0.4848 -0.0027  0.3252  0.0098
                                        -0.7378  0.0057 -0.3382  0.0068  0.0085
                                         0.0049 -0.0121  0.0101  0.0051
               ( 61.50%)  -0.7842* H  8 s( 99.91%)p 0.00(  0.09%)
                                        -0.9995  0.0024 -0.0116  0.0263  0.0112
  29. (0.00616) BD*( 1) C  1- H  9
               ( 38.58%)   0.6211* C  1 s( 23.18%)p 3.31( 76.78%)d 0.00(  0.04%)
                                         0.0000 -0.4814  0.0001  0.4545  0.0149
                                         0.6701 -0.0053 -0.3346  0.0035 -0.0119
                                         0.0059  0.0118  0.0076  0.0054
               ( 61.42%)  -0.7837* H  9 s( 99.91%)p 0.00(  0.09%)
                                        -0.9995  0.0007 -0.0170 -0.0230  0.0108
  30. (0.00898) BD*( 1) C  1- H 10
               ( 38.43%)   0.6199* C  1 s( 23.67%)p 3.22( 76.29%)d 0.00(  0.03%)
                                         0.0000 -0.4865  0.0024  0.1395  0.0169
                                        -0.0140 -0.0034  0.8620 -0.0031 -0.0007
                                        -0.0029 -0.0002 -0.0009 -0.0181
               ( 61.57%)  -0.7847* H 10 s( 99.89%)p 0.00(  0.11%)
                                        -0.9995  0.0016 -0.0057  0.0002 -0.0325
  31. (0.04891) BD*( 1) C  2- O  3
               ( 69.15%)   0.8315* C  2 s( 18.16%)p 4.49( 81.61%)d 0.01(  0.23%)
                                         0.0000  0.4259  0.0132  0.4492  0.0182
                                         0.7121  0.0399 -0.3232  0.0274  0.0327
                                        -0.0164 -0.0239 -0.0145 -0.0142
               ( 30.85%)  -0.5555* O  3 s( 30.32%)p 2.30( 69.61%)d 0.00(  0.07%)
                                         0.0000  0.5507 -0.0021 -0.3852 -0.0016
                                        -0.6871  0.0067  0.2745  0.0143  0.0180
                                        -0.0016 -0.0004 -0.0147 -0.0121
  32. (0.03362) BD*( 1) C  2- C  7
               ( 49.08%)   0.7006* C  2 s( 29.82%)p 2.35( 70.14%)d 0.00(  0.04%)
                                         0.0000 -0.5460  0.0097 -0.3421 -0.0035
                                         0.6905  0.0108  0.3261 -0.0333  0.0113
                                         0.0061 -0.0121  0.0083  0.0053
               ( 50.92%)  -0.7136* C  7 s( 32.01%)p 2.12( 67.94%)d 0.00(  0.05%)
                                         0.0000 -0.5658  0.0022  0.3078 -0.0020
                                        -0.6809  0.0151 -0.3463 -0.0296  0.0114
                                         0.0071 -0.0085  0.0142  0.0057
  33. (0.02661) BD*( 1) C  2- H 11
               ( 38.23%)   0.6183* C  2 s( 22.92%)p 3.36( 77.04%)d 0.00(  0.04%)
                                         0.0000 -0.4788 -0.0023 -0.1247 -0.0121
                                        -0.0292 -0.0133 -0.8679  0.0198  0.0017
                                        -0.0056 -0.0020 -0.0006 -0.0180
               ( 61.77%)  -0.7860* H 11 s( 99.86%)p 0.00(  0.14%)
                                        -0.9993  0.0059  0.0048  0.0007  0.0368
  34. (0.02455) BD*( 1) O  3- C  4
               ( 31.35%)   0.5599* O  3 s( 33.75%)p 1.96( 66.17%)d 0.00(  0.08%)
                                         0.0000 -0.5809 -0.0099 -0.2437 -0.0099
                                        -0.0184 -0.0132  0.7756  0.0101  0.0006
                                         0.0101 -0.0090  0.0005 -0.0255
               ( 68.65%)  -0.8286* C  4 s( 25.44%)p 2.92( 74.30%)d 0.01(  0.26%)
                                         0.0000 -0.5040 -0.0183  0.2587  0.0042
                                         0.0304 -0.0489 -0.8182 -0.0566 -0.0020
                                         0.0274  0.0035 -0.0029 -0.0432
  35. (0.02052) BD*( 1) C  4- C  5
               ( 50.77%)   0.7126* C  4 s( 43.19%)p 1.31( 56.76%)d 0.00(  0.05%)
                                         0.0000  0.6572 -0.0007 -0.0139  0.0166
                                        -0.6169  0.0149 -0.4306 -0.0314 -0.0003
                                        -0.0024  0.0157 -0.0162 -0.0021
               ( 49.23%)  -0.7016* C  5 s( 36.15%)p 1.76( 63.79%)d 0.00(  0.06%)
                                         0.0000  0.6011  0.0144 -0.2077  0.0081
                                         0.6722  0.0370  0.3759 -0.0142 -0.0062
                                        -0.0073  0.0173 -0.0149  0.0017
  36. (0.21009) BD*( 2) C  4- C  5
               ( 54.53%)   0.7385* C  4 s(  0.36%)p99.99( 99.57%)d 0.19(  0.07%)
                                         0.0000  0.0582  0.0155  0.9528 -0.0201
                                        -0.1414 -0.0005  0.2598 -0.0022 -0.0225
                                        -0.0113 -0.0050 -0.0003 -0.0058
               ( 45.47%)  -0.6743* C  5 s(  0.25%)p99.99( 99.70%)d 0.21(  0.05%)
                                         0.0000  0.0489  0.0101  0.9356 -0.0219
                                         0.0525  0.0082  0.3441 -0.0017  0.0146
                                         0.0139  0.0057 -0.0040  0.0090
  37. (0.02264) BD*( 1) C  4- H 12
               ( 39.53%)   0.6287* C  4 s( 30.86%)p 2.24( 69.11%)d 0.00(  0.03%)
                                         0.0000 -0.5554  0.0088 -0.1532  0.0077
                                        -0.7725  0.0042  0.2654 -0.0196 -0.0058
                                        -0.0001  0.0070  0.0139  0.0085
               ( 60.47%)  -0.7776* H 12 s( 99.89%)p 0.00(  0.11%)
                                        -0.9994  0.0034  0.0076  0.0297 -0.0126
  38. (0.02210) BD*( 1) C  5- C  6
               ( 50.03%)   0.7073* C  5 s( 34.07%)p 1.93( 65.88%)d 0.00(  0.04%)
                                         0.0000  0.5837 -0.0005 -0.1077  0.0126
                                        -0.7356 -0.0214  0.3232 -0.0317  0.0029
                                        -0.0047 -0.0133 -0.0147  0.0012
               ( 49.97%)  -0.7069* C  6 s( 33.49%)p 1.98( 66.46%)d 0.00(  0.04%)
                                         0.0000  0.5787  0.0030  0.0747  0.0152
                                         0.6932 -0.0168 -0.4208 -0.0307  0.0010
                                        -0.0041 -0.0124 -0.0162 -0.0027
  39. (0.01466) BD*( 1) C  5- H 13
               ( 38.12%)   0.6174* C  5 s( 29.42%)p 2.40( 70.55%)d 0.00(  0.03%)
                                         0.0000 -0.5423  0.0118 -0.2624  0.0010
                                        -0.0420  0.0003  0.7968 -0.0001 -0.0014
                                         0.0093  0.0031  0.0011 -0.0123
               ( 61.88%)  -0.7867* H 13 s( 99.90%)p 0.00(  0.10%)
                                        -0.9995  0.0016  0.0102  0.0028 -0.0299
  40. (0.01575) BD*( 1) C  6- C  7
               ( 49.76%)   0.7054* C  6 s( 38.34%)p 1.61( 61.60%)d 0.00(  0.06%)
                                         0.0000 -0.6191 -0.0128  0.3163 -0.0019
                                         0.0491  0.0397 -0.7154 -0.0120  0.0014
                                         0.0165 -0.0002  0.0007 -0.0171
               ( 50.24%)  -0.7088* C  7 s( 38.76%)p 1.58( 61.19%)d 0.00(  0.05%)
                                         0.0000 -0.6223 -0.0167 -0.3386 -0.0153
                                         0.0062  0.0383  0.7037  0.0183  0.0000
                                         0.0159  0.0028  0.0005 -0.0167
  41. (0.13276) BD*( 2) C  6- C  7
               ( 51.51%)   0.7177* C  6 s(  0.01%)p99.99( 99.93%)d 5.01(  0.06%)
                                         0.0000  0.0106 -0.0029 -0.8939  0.0141
                                        -0.1650  0.0030 -0.4156  0.0021 -0.0016
                                        -0.0155 -0.0053  0.0098 -0.0156
               ( 48.49%)  -0.6964* C  7 s(  0.00%)p 1.00( 99.94%)d 0.00(  0.06%)
                                         0.0000 -0.0021 -0.0030 -0.8856  0.0223
                                        -0.1820  0.0004 -0.4260  0.0003 -0.0052
                                         0.0145  0.0020 -0.0070  0.0163
  42. (0.01828) BD*( 1) C  6- H 14
               ( 38.29%)   0.6188* C  6 s( 28.02%)p 2.57( 71.95%)d 0.00(  0.03%)
                                         0.0000 -0.5292  0.0138 -0.3072  0.0022
                                         0.6989 -0.0051  0.3696 -0.0041  0.0085
                                         0.0052 -0.0094  0.0089  0.0037
               ( 61.71%)  -0.7856* H 14 s( 99.90%)p 0.00(  0.10%)
                                        -0.9995  0.0025  0.0114 -0.0267 -0.0127
  43. (0.01776) BD*( 1) C  7- H 15
               ( 38.47%)   0.6202* C  7 s( 29.07%)p 2.44( 70.90%)d 0.00(  0.03%)
                                         0.0000 -0.5391  0.0113  0.0714 -0.0045
                                         0.7087  0.0060 -0.4489  0.0020 -0.0017
                                         0.0026  0.0125  0.0105  0.0014
               ( 61.53%)  -0.7844* H 15 s( 99.90%)p 0.00(  0.10%)
                                        -0.9995  0.0027 -0.0016 -0.0276  0.0163
  44. (0.00284) RY ( 1) C  1            s( 10.38%)p 7.92( 82.26%)d 0.71(  7.36%)
                                         0.0000  0.0103  0.3221  0.0057  0.3135
                                        -0.0115 -0.6638 -0.0102 -0.5324 -0.1643
                                        -0.1725  0.0310 -0.0401 -0.1194
  45. (0.00177) RY ( 2) C  1            s(  6.59%)p13.42( 88.35%)d 0.77(  5.07%)
                                         0.0000  0.0042  0.2566 -0.0062  0.4603
                                         0.0052  0.6946 -0.0066 -0.4348  0.1608
                                        -0.1370  0.0121  0.0492 -0.0589
  46. (0.00114) RY ( 3) C  1            s( 29.69%)p 2.23( 66.20%)d 0.14(  4.12%)
                                         0.0000  0.0100  0.5447 -0.0119  0.4890
                                        -0.0006 -0.0933  0.0009  0.6434  0.0569
                                         0.1717  0.0152 -0.0209  0.0881
  47. (0.00018) RY ( 4) C  1            s( 41.89%)p 0.95( 39.70%)d 0.44( 18.40%)
                                         0.0000 -0.0132  0.6471  0.0075 -0.5873
                                         0.0033  0.0470  0.0065 -0.2231  0.1952
                                         0.2996 -0.0444 -0.0277  0.2311
  48. (0.00012) RY ( 5) C  1            s(  0.27%)p16.56(  4.43%)d99.99( 95.31%)
                                         0.0000 -0.0004  0.0517 -0.0091  0.0263
                                        -0.0134  0.1968  0.0058 -0.0675 -0.8890
                                         0.3027  0.1413  0.0784  0.2122
  49. (0.00006) RY ( 6) C  1            s(  6.76%)p 1.91( 12.89%)d11.89( 80.36%)
  50. (0.00001) RY ( 7) C  1            s(  2.23%)p 1.50(  3.35%)d42.39( 94.42%)
  51. (0.00001) RY ( 8) C  1            s(  2.09%)p 0.93(  1.95%)d45.86( 95.96%)
  52. (0.00000) RY ( 9) C  1            s(  0.16%)p 6.22(  0.98%)d99.99( 98.86%)
  53. (0.00477) RY ( 1) C  2            s(  0.17%)p99.99( 89.00%)d64.40( 10.83%)
                                         0.0000  0.0000  0.0410 -0.0126  0.4948
                                        -0.0266  0.5990 -0.0313 -0.5334 -0.0924
                                        -0.0732 -0.0858  0.0283  0.2937
  54. (0.00424) RY ( 2) C  2            s(  0.76%)p99.99( 91.97%)d 9.50(  7.27%)
                                         0.0000 -0.0380  0.0788 -0.0100 -0.0066
                                        -0.0301  0.6648  0.0335  0.6896  0.0231
                                        -0.1401 -0.1083  0.1049 -0.1725
  55. (0.00216) RY ( 3) C  2            s(  1.01%)p66.38( 67.10%)d31.55( 31.89%)
                                         0.0000  0.0142  0.0995  0.0257 -0.7172
                                         0.0044  0.2426 -0.0143 -0.3113 -0.1590
                                        -0.0424  0.0769  0.5329  0.0446
  56. (0.00145) RY ( 4) C  2            s( 14.62%)p 1.50( 21.96%)d 4.34( 63.42%)
                                         0.0000 -0.0013  0.3824  0.0006  0.3838
                                        -0.0095 -0.2670  0.0036  0.0288  0.3283
                                        -0.2644  0.0449  0.6639 -0.1170
  57. (0.00105) RY ( 5) C  2            s( 16.39%)p 0.35(  5.69%)d 4.76( 77.93%)
                                         0.0000  0.0018  0.4048  0.0065  0.1092
                                         0.0183 -0.1903  0.0007  0.0915 -0.8389
                                        -0.1494 -0.2247 -0.0147 -0.0494
  58. (0.00069) RY ( 6) C  2            s( 41.51%)p 0.25( 10.36%)d 1.16( 48.13%)
                                         0.0000  0.0009  0.6443 -0.0170 -0.2536
                                        -0.0291  0.0651  0.0048 -0.1842  0.3476
                                        -0.3035 -0.1392 -0.4903 -0.0925
  59. (0.00046) RY ( 7) C  2            s(  4.45%)p 1.10(  4.91%)d20.38( 90.65%)
                                         0.0000 -0.0009  0.2109  0.0051  0.1220
                                         0.0112  0.1525 -0.0010 -0.1039 -0.1438
                                         0.2340  0.7638 -0.0993 -0.4876
  60. (0.00031) RY ( 8) C  2            s(  9.54%)p 0.05(  0.43%)d 9.43( 90.02%)
                                         0.0000 -0.0005  0.3089  0.0100  0.0286
                                        -0.0160  0.0474 -0.0048 -0.0293  0.1055
                                         0.8325 -0.4084  0.1093 -0.1319
  61. (0.00007) RY ( 9) C  2            s( 11.69%)p 0.75(  8.80%)d 6.80( 79.52%)
  62. (0.00281) RY ( 1) O  3            s(  8.06%)p10.80( 87.02%)d 0.61(  4.92%)
                                         0.0000 -0.0057  0.2838  0.0017 -0.5809
                                         0.0063  0.7156  0.0021  0.1434  0.1126
                                        -0.0234 -0.1636  0.0912  0.0301
  63. (0.00212) RY ( 2) O  3            s(  4.00%)p21.34( 85.41%)d 2.65( 10.59%)
                                         0.0000 -0.0096  0.1998 -0.0013  0.6905
                                         0.0064  0.3137  0.0045  0.5281 -0.0056
                                        -0.2045 -0.2426 -0.0202  0.0695
  64. (0.00044) RY ( 3) O  3            s( 46.93%)p 1.07( 50.11%)d 0.06(  2.96%)
                                         0.0000  0.0016  0.6850 -0.0018 -0.2524
                                        -0.0016 -0.5650 -0.0026  0.3438  0.0009
                                        -0.0945 -0.0218  0.0442  0.1351
  65. (0.00028) RY ( 4) O  3            s( 20.32%)p 1.37( 27.78%)d 2.55( 51.90%)
                                         0.0000 -0.0014  0.4508  0.0006  0.2043
                                        -0.0043  0.1172  0.0149 -0.4712 -0.1202
                                         0.4575 -0.2030 -0.4527  0.2218
  66. (0.00024) RY ( 5) O  3            s( 19.07%)p 1.51( 28.84%)d 2.73( 52.09%)
                                         0.0000 -0.0019  0.4366 -0.0078  0.2238
                                        -0.0002  0.1113  0.0057 -0.4753  0.1325
                                        -0.3762  0.2679  0.3072 -0.4423
  67. (0.00013) RY ( 6) O  3            s(  0.01%)p99.99(  4.62%)d99.99( 95.36%)
                                         0.0000 -0.0026  0.0119 -0.0120  0.0682
                                        -0.0157  0.1104  0.0297 -0.1677 -0.2922
                                        -0.1537  0.3035  0.4081  0.7655
  68. (0.00004) RY ( 7) O  3            s(  1.43%)p 7.10( 10.17%)d61.73( 88.40%)
  69. (0.00001) RY ( 8) O  3            s(  0.04%)p77.70(  2.91%)d99.99( 97.05%)
  70. (0.00001) RY ( 9) O  3            s(  0.16%)p20.57(  3.38%)d99.99( 96.46%)
  71. (0.00618) RY ( 1) C  4            s(  0.60%)p99.99( 92.83%)d10.90(  6.57%)
                                         0.0000 -0.0253  0.0734  0.0109 -0.2532
                                        -0.0321  0.2837 -0.0647  0.8823  0.0972
                                        -0.0162 -0.2347 -0.0290 -0.0038
  72. (0.00393) RY ( 2) C  4            s(  0.16%)p99.99( 76.73%)d99.99( 23.11%)
                                         0.0000  0.0299  0.0266 -0.0170 -0.2266
                                        -0.0255 -0.8379  0.0338  0.1089  0.1615
                                         0.1963 -0.2801 -0.1894 -0.2283
  73. (0.00231) RY ( 3) C  4            s(  8.75%)p 0.36(  3.18%)d10.07( 88.08%)
                                         0.0000  0.0013  0.2957 -0.0187  0.0194
                                         0.0020 -0.1596 -0.0090  0.0739 -0.2547
                                        -0.7432  0.0852  0.2093 -0.4610
  74. (0.00139) RY ( 4) C  4            s( 16.11%)p 4.75( 76.56%)d 0.45(  7.33%)
                                         0.0000  0.0006  0.4014 -0.0150 -0.8069
                                         0.0055  0.1231 -0.0160 -0.3144  0.1416
                                        -0.0482  0.0097  0.1233  0.1887
  75. (0.00090) RY ( 5) C  4            s( 49.94%)p 0.29( 14.57%)d 0.71( 35.49%)
                                         0.0000 -0.0072  0.7066  0.0042  0.2612
                                         0.0084 -0.1890 -0.0172  0.2035 -0.1315
                                         0.2148  0.4239 -0.1453  0.3012
  76. (0.00050) RY ( 6) C  4            s( 10.15%)p 1.44( 14.63%)d 7.41( 75.22%)
                                         0.0000 -0.0033  0.3186  0.0091  0.3574
                                         0.0030 -0.0061 -0.0202 -0.1343  0.2055
                                        -0.2013 -0.7191  0.1655  0.3534
  77. (0.00006) RY ( 7) C  4            s( 11.30%)p 1.10( 12.40%)d 6.75( 76.30%)
  78. (0.00003) RY ( 8) C  4            s(  3.10%)p 2.13(  6.60%)d29.14( 90.30%)
  79. (0.00001) RY ( 9) C  4            s(  0.06%)p48.98(  2.76%)d99.99( 97.18%)
  80. (0.00393) RY ( 1) C  5            s(  0.14%)p99.99( 92.33%)d55.25(  7.54%)
                                         0.0000 -0.0252  0.0270  0.0170  0.4585
                                         0.0192 -0.1704 -0.0160 -0.8265 -0.0563
                                         0.1018  0.0604 -0.1300 -0.2032
  81. (0.00184) RY ( 2) C  5            s(  0.58%)p99.99( 83.49%)d27.33( 15.93%)
                                         0.0000 -0.0108  0.0756 -0.0154 -0.6066
                                        -0.0205  0.5393 -0.0156 -0.4185  0.3167
                                        -0.1061  0.0959 -0.0490 -0.1901
  82. (0.00167) RY ( 3) C  5            s( 16.91%)p 4.64( 78.44%)d 0.27(  4.65%)
                                         0.0000 -0.0105  0.4111  0.0087  0.4855
                                        -0.0321  0.7245 -0.0130  0.1500 -0.1371
                                         0.0833 -0.0992 -0.0949  0.0435
  83. (0.00097) RY ( 4) C  5            s( 77.28%)p 0.24( 18.56%)d 0.05(  4.17%)
                                         0.0000  0.0030  0.8791 -0.0048 -0.1989
                                         0.0046 -0.3788 -0.0133  0.0480 -0.0095
                                        -0.0514  0.0247 -0.1441 -0.1326
  84. (0.00028) RY ( 5) C  5            s(  0.27%)p45.13( 12.13%)d99.99( 87.60%)
                                         0.0000  0.0010  0.0518 -0.0090  0.3128
                                         0.0011 -0.0744 -0.0022  0.1336  0.8868
                                         0.0638  0.2751  0.0001  0.0987
  85. (0.00011) RY ( 6) C  5            s(  0.04%)p21.29(  0.75%)d99.99( 99.21%)
                                         0.0000  0.0011  0.0188  0.0022  0.0089
                                        -0.0256  0.0642 -0.0039  0.0515 -0.2977
                                        -0.0385  0.9409  0.1284  0.0177
  86. (0.00007) RY ( 7) C  5            s(  4.05%)p 2.13(  8.61%)d21.56( 87.34%)
  87. (0.00001) RY ( 8) C  5            s(  0.78%)p 0.27(  0.21%)d99.99( 99.02%)
  88. (0.00000) RY ( 9) C  5            s(  0.07%)p80.63(  5.56%)d99.99( 94.37%)
  89. (0.00541) RY ( 1) C  6            s(  0.11%)p99.99( 92.35%)d70.41(  7.55%)
                                         0.0000  0.0322 -0.0058 -0.0116 -0.2639
                                         0.0256  0.8838  0.0157  0.2678 -0.1059
                                        -0.0228  0.2253 -0.0434 -0.1054
  90. (0.00254) RY ( 2) C  6            s(  1.92%)p50.16( 96.54%)d 0.80(  1.54%)
                                         0.0000 -0.0020  0.1387  0.0084 -0.1138
                                         0.0177 -0.3233 -0.0263  0.9202  0.0302
                                         0.0148  0.0018 -0.0678 -0.0982
  91. (0.00154) RY ( 3) C  6            s(  2.17%)p25.25( 54.78%)d19.85( 43.05%)
                                         0.0000  0.0002  0.1473  0.0177  0.7099
[...]
 11 H                -0.0      -0.0      -0.0      -0.0      -0.3      -0.0
 14 H                 0.0      -0.0      -0.0      -0.0       0.7      -0.8

                     54        55        56        57        58        59   
                   0.00000   0.00000   0.00000   0.00000   0.00000   0.00000
                   0.00216   0.00145   0.00105   0.00069   0.00046   0.00031
                  --------  --------  --------  --------  --------  --------
  0 C               -29.6      -1.2      -6.0     -51.3      -1.2      -3.9
  1 C               145.9     152.9     136.7     177.7     112.7     122.5
  2 O                -4.8      -1.5      -5.2      -0.9      -5.0      -2.7
  3 C                -0.0      -1.9      -0.3      -4.3      -1.7      -1.6
  4 C                -0.3      -0.6      -0.6      -0.5       0.4      -0.4
  5 C                 0.2      -1.5       0.9       0.2      -0.5       1.1
  6 C                -9.4     -38.0     -18.5     -17.9      -1.5     -11.8
  7 H                -0.2      -0.3      -0.0       0.6      -0.0       0.2
  8 H                -0.0      -0.1       0.3       0.1      -0.0       0.0
  9 H                 0.4      -0.1       0.0       0.8      -0.0      -0.1
 10 H                -2.0      -7.4      -7.0      -3.9      -3.0      -2.9
 11 H                -0.0      -0.1      -0.0      -0.2      -0.1      -0.1
 14 H                -0.1      -0.2      -0.3      -0.4       0.0      -0.3

                     60        61        62        63        64        65   
                   0.00000   0.00000   0.00000   0.00000   0.00000   0.00000
                   0.00007   0.00281   0.00212   0.00044   0.00028   0.00024
                  --------  --------  --------  --------  --------  --------
  0 C               -10.2       0.4      -0.4       0.7      -0.3      -0.2
  1 C               136.2      -6.5      -3.7     -26.9      -1.3      -1.6
  2 O                -4.0     113.1     108.8     131.3     115.3     116.0
  3 C                -0.0      -5.9      -3.9      -5.0     -12.3     -12.0
  4 C                 0.4      -0.0      -0.4      -0.5      -0.3      -0.8
  5 C                -0.3       0.2      -0.0      -0.8      -0.5      -0.5
  6 C                -7.5      -0.9      -0.2       1.3      -0.0      -0.1
  7 H                 0.2      -0.1       0.0      -0.1      -0.0      -0.0
  8 H                 0.2      -0.0      -0.0      -0.1      -0.0      -0.0
  9 H                 0.1      -0.0      -0.0      -0.1      -0.0      -0.0
 10 H               -14.9      -0.2       0.0      -0.0       0.0      -0.1
 11 H                -0.0      -0.1      -0.1       0.2      -0.5      -0.5

                     66        67        68        69        70        71   
                   0.00000   0.00000   0.00000   0.00000   0.00000   0.00000
                   0.00013   0.00004   0.00001   0.00001   0.00618   0.00393
                  --------  --------  --------  --------  --------  --------
  0 C                 0.0      -0.1      -0.1      -0.0      -0.6      -0.1
  1 C                -1.1      -2.5      -0.6      -0.6      -6.8      -5.1
  2 O               103.0     104.3     101.6     101.5     -23.1      -3.8
  3 C                -1.6      -1.6      -0.8      -0.6     171.4     164.5
  4 C                -0.3       0.1      -0.0      -0.0     -36.1     -28.7
  5 C                -0.0       0.0      -0.0      -0.0      -3.0       3.0
  6 C                -0.1      -0.2      -0.0      -0.1      -0.3      -0.7
  9 H                 0.0      -0.0       0.0      -0.0      -0.1      -0.1
 10 H                 0.0      -0.0       0.0      -0.0      -0.0      -0.1
 11 H                 0.1      -0.1      -0.0      -0.0      -2.6     -28.2
 12 H                -0.0      -0.0      -0.0      -0.0       1.2      -0.7

                     72        73        74        75        76        77   
                   0.00000   0.00000   0.00000   0.00000   0.00000   0.00000
                   0.00231   0.00139   0.00090   0.00050   0.00006   0.00003
                  --------  --------  --------  --------  --------  --------
  0 C                -0.1      -0.9      -0.0       0.1      -0.1       0.1
  1 C                -0.6      -1.7      -4.6      -0.0       0.9      -0.8
  2 O                -3.9      -1.4      -4.8      -1.4      -3.0      -0.6
  3 C               122.0     131.4     185.7     130.9     127.2     113.6
  4 C               -17.4     -22.8     -73.1     -25.8     -11.9      -4.8
  5 C                 1.3      -0.3       4.6       0.4      -0.4      -0.0
  6 C                -0.9       0.1      -1.9      -0.5      -0.2       0.2
  9 H                 0.0      -0.6      -0.1      -0.0      -0.1      -0.0
 10 H                -0.0      -0.0      -0.1      -0.0      -0.0      -0.0
 11 H                -0.2      -3.5      -4.8      -3.5     -12.4      -7.7
 12 H                -0.3      -0.3      -1.0      -0.3      -0.0       0.1

                     78        79        80        81        82        83   
                   0.00000   0.00000   0.00000   0.00000   0.00000   0.00000
                   0.00001   0.00393   0.00184   0.00167   0.00097   0.00028
                  --------  --------  --------  --------  --------  --------
  0 C                 0.0       0.2      -0.0       0.0       0.1      -0.0
  1 C                -0.2      -1.6      -0.2      -0.7      -3.1      -0.0
  2 O                -0.9       0.6      -1.2      -1.4      -0.8      -0.0
  3 C               108.1     -30.7     -23.5     -96.8     -53.8      -2.7
  4 C                -1.3     186.5     146.4     216.1     284.1     107.1
  5 C                -0.1     -25.1     -16.2     -10.3    -127.5      -3.8
  6 C                -0.0       4.2      -1.4      -2.1       9.3      -0.4
  9 H                 0.0      -0.3      -0.1      -0.0      -0.7      -0.0
 11 H                -5.6      -0.8       0.3      -0.2      -0.9       0.0
 12 H                 0.1     -33.6      -4.0      -5.1      -4.3      -0.2
 13 H                -0.0       0.7      -0.1       0.5      -2.6       0.0
 14 H                -0.0      -0.1       0.0      -0.0       0.2      -0.0

                     84        85        86        87        88        89   
                   0.00000   0.00000   0.00000   0.00000   0.00000   0.00000
                   0.00011   0.00007   0.00001   0.00000   0.00541   0.00254
                  --------  --------  --------  --------  --------  --------
  0 C                -0.0      -0.0      -0.0       0.0       0.2       0.5
  1 C                -0.1       0.2      -0.1      -0.2       3.0      -5.0
  2 O                -0.1      -0.0      -0.0      -0.1      -0.2      -0.2
  3 C                -2.7      -5.2      -2.4      -1.5       3.6      -5.1
  4 C               107.2     121.6     107.1     105.1     -29.8     -38.9
  5 C                -2.2      -4.7      -1.0      -1.1     188.5     242.8
  6 C                -0.1      -0.3       0.1      -0.0     -30.3     -94.0
 12 H                -2.3     -11.4      -3.4      -2.2      -0.5       1.4
 13 H                 0.1      -0.1      -0.1      -0.0     -35.0      -2.4
 14 H                -0.0      -0.0      -0.0      -0.0       0.6       0.7

                     90        91        92        93        94        95   
                   0.00000   0.00000   0.00000   0.00000   0.00000   0.00000
                   0.00154   0.00076   0.00024   0.00011   0.00006   0.00001
                  --------  --------  --------  --------  --------  --------
  0 C                 0.0       0.5      -0.0       0.0      -0.0       0.0
  1 C                -0.1       5.1      -0.3      -0.0       0.1      -0.1
  2 O                -0.1      -0.8      -0.0      -0.1      -0.0      -0.0
  3 C                -0.5       6.5       0.0       0.2      -0.2      -0.1
  4 C                -9.8     -93.5      -6.4      -5.3      -4.1      -1.2
  5 C               118.2     300.8     111.7     112.0     119.1     105.7
  6 C                -6.0    -109.0      -3.1      -3.8      -6.3      -1.7
  9 H                -0.1      -0.0       0.0      -0.0      -0.0      -0.0
 11 H                 0.0       0.1      -0.0       0.0      -0.0      -0.0
 12 H                 0.0      -1.8       0.0      -0.0      -0.1      -0.0
 13 H                -1.5      -6.4      -2.0      -3.1      -8.3      -2.5
 14 H                -0.1      -1.4       0.1       0.1      -0.1      -0.0

                     96        97        98        99       100       101   
                   0.00000   0.00000   0.00000   0.00000   0.00000   0.00000
                   0.00001   0.00437   0.00358   0.00166   0.00141   0.00023
                  --------  --------  --------  --------  --------  --------
  0 C                 0.0      -3.0      -1.2       0.2      -5.2      -0.1
  1 C                -0.0      -6.2     -16.3     -52.1     -53.7      -1.9
  2 O                -0.0      -0.2       0.3      -1.1       0.2      -0.0
  3 C                 0.2      -0.1       0.0      -0.8      -3.4      -0.0
  4 C                -3.0      -0.1       1.2      -5.0      12.2      -0.1
  5 C               109.7      -7.0     -27.7     -45.9    -159.7      -3.6
  6 C                -2.2     122.9     173.3     208.6     316.7     107.3
  7 H                -0.0      -0.1      -0.1      -0.1      -0.3      -0.0
  8 H                -0.0      -0.3       0.0      -0.5       0.2      -0.0
  9 H                -0.0       0.1      -0.1       0.0      -0.3      -0.0
 10 H                -0.0      -0.1      -0.2       1.5      -0.5       0.0
 12 H                -0.1      -0.0      -0.0      -0.0       0.2      -0.0
 13 H                -4.5      -0.1       1.2       0.6      -2.8       0.0
 14 H                -0.0      -5.7     -30.4      -5.3      -3.5      -1.5

                    102       103       104       105       106       107   
                   0.00000   0.00000   0.00000   0.00000   0.00000   0.00000
                   0.00013   0.00006   0.00002   0.00001   0.00282   0.00014
                  --------  --------  --------  --------  --------  --------
  0 C                -0.1       0.0       0.0      -0.0     -34.6      -2.9
  1 C                -1.0      -2.7      -2.3      -0.3       0.2      -0.2
  2 O                -0.0      -0.1      -0.1      -0.0      -0.1      -0.1
  4 C                -0.0       0.4      -0.1       0.2      -0.0      -0.0
  5 C                -4.3      -3.4      -1.7      -1.3       0.0      -0.0
  6 C               108.1     111.1     106.7     110.1      -0.5      -0.1
  7 H                -0.0      -0.0      -0.0      -0.0     136.0     104.1
  8 H                 0.0      -0.0      -0.0      -0.0      -0.3      -0.4
  9 H                 0.0      -0.0      -0.0      -0.0      -0.4      -0.4
 10 H                -0.0       0.0       0.0       0.0      -0.4      -0.0
 13 H                 0.0      -0.1      -0.0       0.1      -0.0      -0.0
 14 H                -2.5      -5.2      -2.4      -8.8      -0.0      -0.0

                    108       109       110       111       112       113   
                   0.00000   0.00000   0.00000   0.00000   0.00000   0.00000
                   0.00012   0.00003   0.00171   0.00017   0.00013   0.00002
                  --------  --------  --------  --------  --------  --------
  0 C                -3.3      -7.8     -34.3      -3.0      -3.2      -7.8
  1 C                -0.1      -0.2       0.8      -0.2      -0.1      -0.1
  2 O                -0.1      -0.0      -0.0      -0.0      -0.1      -0.1
  3 C                -0.0      -0.0      -0.1      -0.0      -0.0      -0.0
  5 C                -0.0      -0.0      -0.1      -0.0      -0.0      -0.0
  6 C                -0.0      -0.1      -0.6      -0.0      -0.0      -0.0
  7 H               104.4     108.3      -0.3      -0.2      -0.4      -0.1
  8 H                -0.3      -0.1     135.5     104.0     104.3     108.3
  9 H                -0.4      -0.1      -0.3      -0.5      -0.3      -0.1
 10 H                -0.1      -0.0      -0.3      -0.1      -0.0      -0.0
 14 H                -0.0      -0.0      -0.3      -0.0      -0.0      -0.0

                    114       115       116       117       118       119   
                   0.00000   0.00000   0.00000   0.00000   0.00000   0.00000
                   0.00154   0.00015   0.00010   0.00002   0.00305   0.00009
                  --------  --------  --------  --------  --------  --------
  0 C               -38.3      -2.9      -3.1      -8.0       0.3      -0.3
  1 C                 1.5      -0.2      -0.2      -0.1     -39.1      -5.6
  2 O                 0.0      -0.1      -0.1      -0.0       0.4      -0.1
  3 C                -0.9      -0.0      -0.0      -0.0      -0.1      -0.0
  4 C                -1.2      -0.0      -0.0      -0.0       0.0      -0.0
  5 C                -0.2      -0.0      -0.0      -0.0      -0.1      -0.0
  6 C                -0.6      -0.0      -0.1       0.0       0.9      -0.2
  7 H                -0.4      -0.3      -0.5      -0.1      -0.4      -0.0
  8 H                -0.3      -0.4      -0.3      -0.1      -0.3      -0.0
  9 H               140.4     104.0     104.4     108.5      -0.0      -0.0
 10 H                 0.0      -0.1      -0.0      -0.0     139.0     106.4
 14 H                -0.0      -0.0      -0.0      -0.0      -0.6      -0.0

                    120       121       122       123       124       125   
                   0.00000   0.00000   0.00000   0.00000   0.00000   0.00000
                   0.00008   0.00003   0.00168   0.00022   0.00009   0.00003
                  --------  --------  --------  --------  --------  --------
  0 C                -0.2       0.0       0.0      -0.0      -0.0      -0.0
  1 C                -3.1      -5.6      -0.5      -0.1      -0.0      -0.1
  2 O                -0.4      -1.0      -0.3      -0.1       0.0      -1.2
  3 C                -0.0      -0.1     -44.9      -3.4      -8.2      -4.7
  4 C                -0.0      -0.0      -2.2      -0.1      -0.3       0.0
  5 C                 0.0       0.0       0.2      -0.0      -0.0      -0.0
  6 C                -0.8      -0.2      -0.0       0.0      -0.0      -0.0
 10 H               104.7     106.9      -0.0      -0.0      -0.0      -0.0
 11 H                -0.0      -0.0     148.8     103.7     108.6     106.0
 12 H                -0.0      -0.0      -1.0      -0.0      -0.0      -0.0

                    126       127       128       129       130       131   
                   0.00000   0.00000   0.00000   0.00000   0.00000   0.00000
                   0.00170   0.00026   0.00007   0.00006   0.00189   0.00020
                  --------  --------  --------  --------  --------  --------
  3 C                -1.9      -0.0      -0.1      -0.1       0.1      -0.0
  4 C               -42.1      -3.3      -7.7      -5.1      -1.7      -0.1
  5 C                -1.1      -0.1      -0.1      -1.0     -41.0      -3.1
  6 C                 0.2      -0.0      -0.0      -0.1      -1.7      -0.1
 11 H                -1.0      -0.0      -0.1      -0.0      -0.0      -0.0
 12 H               146.7     103.5     108.1     106.4      -0.8      -0.0
 13 H                -0.8      -0.0      -0.0      -0.1     146.0     103.4
 14 H                -0.0      -0.0      -0.0      -0.0      -1.0      -0.0

                    132       133       134       135       136       137   
                   0.00000   0.00000   0.00000   0.00000   0.00000   0.00000
                   0.00008   0.00006   0.00186   0.00026   0.00008   0.00004
                  --------  --------  --------  --------  --------  --------
  0 C                -0.0      -0.0       0.1      -0.1      -0.0      -0.0
  1 C                -0.0      -0.0      -1.5      -0.1       0.1      -0.9
  4 C                -0.3      -0.6       0.2      -0.0      -0.0      -0.0
  5 C                -6.3      -6.5      -0.8      -0.1      -0.3      -0.0
  6 C                -0.4       0.1     -40.9      -3.0      -8.0      -5.0
  8 H                -0.0      -0.0      -0.3      -0.0      -0.0      -0.0
 10 H                -0.0      -0.0      -0.6      -0.0      -0.0       0.0
 13 H               107.2     107.3      -1.0      -0.0      -0.0      -0.0
 14 H                -0.1      -0.0     144.8     103.5     108.4     106.1


Storing NBOs: 3421.nbo
                                    *** NBOs were stored ***

                                *** returned from GENNBO program ***

-------
TIMINGS
-------

Total SCF time: 0 days 0 hours 0 min 5 sec 

Total time                  ....       5.840 sec
Sum of individual times     ....       6.316 sec  (108.1%)

Fock matrix formation       ....       3.925 sec  ( 67.2%)
  Coulomb formation         ....       2.120 sec  ( 54.0% of F)
  Split-RI-J                ....       2.112 sec  ( 53.8% of F)
  XC integration            ....       1.800 sec  ( 45.9% of F)
    Basis function eval.    ....       0.602 sec  ( 33.5% of XC)
    Density eval.           ....       0.327 sec  ( 18.2% of XC)
    XC-Functional eval.     ....       0.105 sec  (  5.8% of XC)
    XC-Potential eval.      ....       0.717 sec  ( 39.8% of XC)
Diagonalization             ....       0.023 sec  (  0.4%)
Density matrix formation    ....       0.003 sec  (  0.0%)
Population analysis         ....       1.319 sec  ( 22.6%)
Initial guess               ....       0.366 sec  (  6.3%)
Orbital Transformation      ....       0.000 sec  (  0.0%)
Orbital Orthonormalization  ....       0.000 sec  (  0.0%)
DIIS solution               ....       0.006 sec  (  0.1%)
SOSCF solution              ....       0.013 sec  (  0.2%)
Grid generation             ....       0.661 sec  ( 11.3%)
           ************************************************************
           *              Shut down parallel processing               *
           ************************************************************

-------------------------   --------------------
FINAL SINGLE POINT ENERGY      -308.018003727153
-------------------------   --------------------


                            ***************************************
                            *     ORCA property calculations      *
                            ***************************************

                                    ---------------------
                                    Active property flags
                                    ---------------------
   (+) Dipole Moment


------------------------------------------------------------------------------
                       ORCA ELECTRIC PROPERTIES CALCULATION
------------------------------------------------------------------------------

Dipole Moment Calculation                       ... on
Quadrupole Moment Calculation                   ... off
Polarizability Calculation                      ... off
GBWName                                         ... 3421.gbw
Electron density file                           ... 3421.scfp.tmp

-------------
DIPOLE MOMENT
-------------
                                X             Y             Z
Electronic contribution:      3.50604       1.46149      -0.25957
Nuclear contribution   :     -3.70592      -1.64398       0.23651
                        -----------------------------------------
Total Dipole Moment    :     -0.19987      -0.18249      -0.02307
                        -----------------------------------------
Magnitude (a.u.)       :      0.27163
Magnitude (Debye)      :      0.69043


Timings for individual modules:

Sum of individual times         ...        7.005 sec (=   0.117 min)
GTO integral calculation        ...        0.470 sec (=   0.008 min)   6.7 %
SCF iterations                  ...        6.534 sec (=   0.109 min)  93.3 %
                             ****ORCA TERMINATED NORMALLY****
TOTAL RUN TIME: 0 days 0 hours 0 minutes 7 seconds 396 msec
