
                                 *****************
                                 * O   R   C   A *
                                 *****************

           --- An Ab Initio, DFT and Semiempirical electronic structure package ---

                  #######################################################
                  #                        -***-                        #
                  #  Department of molecular theory and spectroscopy    #
                  #              Directorship: Frank Neese              #
                  # Max Planck Institute for Chemical Energy Conversion #
                  #                  D-45470 Muelheim/Ruhr              #
                  #                       Germany                       #
                  #                                                     #
                  #                  All rights reserved                #
                  #                        -***-                        #
                  #######################################################


                         Program Version 3.0.3 - RELEASE   -


 With contributions from (in alphabetic order):
   Ute Becker             : Parallelization
   Dmytro Bykov           : SCF Hessian
   Dmitry Ganyushin       : Spin-Orbit,Spin-Spin,Magnetic field MRCI
   Andreas Hansen         : Spin unrestricted coupled pair/coupled cluster methods
   Dimitrios Liakos       : Extrapolation schemes; parallel MDCI
   Robert Izsak           : Overlap fitted RIJCOSX, COSX-SCS-MP3
   Christian Kollmar      : KDIIS, OOCD, Brueckner-CCSD(T), CCSD density
   Simone Kossmann        : Meta GGA functionals, TD-DFT gradient, OOMP2, MP2 Hessian
   Taras Petrenko         : DFT Hessian,TD-DFT gradient, ASA and ECA modules, normal mode analysis, Resonance Raman, ABS, FL, XAS/XES, NRVS
   Christoph Reimann      : Effective Core Potentials
   Michael Roemelt        : Restricted open shell CIS
   Christoph Riplinger    : Improved optimizer, TS searches, QM/MM, DLPNO-CCSD
   Barbara Sandhoefer     : DKH picture change effects
   Igor Schapiro          : Molecular dynamics
   Kantharuban Sivalingam : CASSCF convergence, NEVPT2
   Boris Wezisla          : Elementary symmetry handling
   Frank Wennmohs         : Technical directorship


 We gratefully acknowledge several colleagues who have allowed us to
 interface, adapt or use parts of their codes:
   Stefan Grimme, W. Hujo, H. Kruse, T. Risthaus : VdW corrections, initial TS optimization,
                                                   DFT functionals, gCP
   Ed Valeev                                     : LibInt (2-el integral package), F12 methods
   Garnet Chan, S. Sharma, R. Olivares           : DMRG
   Ulf Ekstrom                                   : XCFun DFT Library
   Mihaly Kallay                                 : mrcc  (arbitrary order and MRCC methods)
   Andreas Klamt, Michael Diedenhofen            : otool_cosmo (COSMO solvation model)
   Frank Weinhold                                : gennbo (NPA and NBO analysis)
   Christopher J. Cramer and Donald G. Truhlar   : smd solvation model


 Your calculation uses the libint2 library for the computation of 2-el integrals
 For citations please refer to: http://libint.valeyev.net

 This ORCA versions uses:
   CBLAS   interface :  Fast vector & matrix operations
   LAPACKE interface :  Fast linear algebra routines
   SCALAPACK package :  Parallel linear algebra routines


Your calculation utilizes the basis: Ahlrichs-VDZ
Cite in your paper:
H - Kr: A. Schaefer, H. Horn and R. Ahlrichs, J. Chem. Phys. 97, 2571 (1992).

Your calculation utilizes the basis: Ahlrichs SVPalls1+f
Cite in your paper:
Rb - Xe: A. Schaefer, C. Huber and R. Ahlrichs, J. Chem. Phys. 100, 5829 (1994).

================================================================================
                                        WARNINGS
                       Please study these warnings very carefully!
================================================================================
Now building the actual basis set


INFO   : the flag for use of LIBINT has been found!

================================================================================
                                       INPUT FILE
================================================================================
NAME = 3965.inp
|  1> ! RI PBE def2-SVP def2-SVP/J NBO PAL2
|  2> % maxcore 2000
|  3> % output
|  4>     # printlevel mini
|  5>     print[ P_Basis ] 0
|  6>     print[ P_SCFInfo ] 1
|  7>     print[ P_SCFIterInfo ] 1
|  8>     print[ P_OrbEn ] 0
|  9>     print[ P_Cartesian ] 0
| 10> end
| 11> *xyz 0 1
| 12>  C        0.9982470000     0.0685280000    -0.1654360000 
| 13>  C        2.5077740000    -0.0196530000    -0.0470210000 
| 14>  O        3.0953270000    -0.4011820000    -1.2818270000 
| 15>  C        3.1204320000     1.2716070000     0.4805510000 
| 16>  C        4.6006220000     1.1751810000     0.7212880000 
| 17>  C        5.2740020000     2.1201240000     1.6659840000 
| 18>  C        5.1121880000     0.6755530000     2.0376760000 
| 19>  H        0.5923170000    -0.8636270000    -0.5622480000 
| 20>  H        0.7102540000     0.8826170000    -0.8399070000 
| 21>  H        0.5356100000     0.2632240000     0.8053300000 
| 22>  H        2.7690830000    -0.8332860000     0.6379080000 
| 23>  H        2.8517230000     0.2570610000    -1.9399170000 
| 24>  H        2.6163090000     1.5513020000     1.4132140000 
| 25>  H        2.9057890000     2.0772200000    -0.2363780000 
| 26>  H        5.1745260000     0.8776330000    -0.1496340000 
| 27>  H        4.6524980000     2.8443790000     2.1802900000 
| 28>  H        6.2660490000     2.4787640000     1.4209860000 
| 29>  H        4.3832640000     0.4319520000     2.8026820000 
| 30>  H        5.9925780000     0.0452230000     2.0448670000 
| 31> *
| 32> 
| 33>                          ****END OF INPUT****
================================================================================

                       ****************************
                       * Single Point Calculation *
                       ****************************

--------------------------------
INTERNAL COORDINATES (ANGSTROEM)
--------------------------------
 C      0   0   0   0.000000     0.000     0.000
 C      1   0   0   1.516730     0.000     0.000
 O      2   1   0   1.419693   111.076     0.000
 C      2   1   3   1.523494   112.209   125.241
 C      4   2   1   1.502736   113.403   175.005
 C      5   4   2   1.496265   120.259   202.047
 C      5   4   2   1.498067   119.903   272.815
 H      1   2   3   1.091399   110.420    53.732
 H      1   2   3   1.095715   110.661   293.908
 H      1   2   3   1.092852   111.243   174.290
 H      2   1   3   1.095175   109.238   245.593
 H      3   2   1   0.962138   107.834    59.164
 H      4   2   1   1.096462   109.018    52.800
 H      4   2   1   1.099578   108.463   297.647
 H      5   4   2   1.084622   114.215    56.603
 H      6   5   4   1.084123   117.608     1.702
 H      6   5   4   1.082961   118.592   217.256
 H      7   5   4   1.084392   117.729   357.598
 H      7   5   4   1.082799   118.531   142.125

---------------------------
INTERNAL COORDINATES (A.U.)
---------------------------
 C      0   0   0   0.000000     0.000     0.000
 C      1   0   0   2.866204     0.000     0.000
 O      2   1   0   2.682831   111.076     0.000
 C      2   1   3   2.878987   112.209   125.241
 C      4   2   1   2.839759   113.403   175.005
 C      5   4   2   2.827531   120.259   202.047
 C      5   4   2   2.830937   119.903   272.815
 H      1   2   3   2.062445   110.420    53.732
 H      1   2   3   2.070602   110.661   293.908
 H      1   2   3   2.065192   111.243   174.290
 H      2   1   3   2.069581   109.238   245.593
 H      3   2   1   1.818177   107.834    59.164
 H      4   2   1   2.072013   109.018    52.800
 H      4   2   1   2.077901   108.463   297.647
 H      5   4   2   2.049639   114.215    56.603
 H      6   5   4   2.048696   117.608     1.702
 H      6   5   4   2.046499   118.592   217.256
 H      7   5   4   2.049204   117.729   357.598
 H      7   5   4   2.046194   118.531   142.125



           ************************************************************
           *        Program running with 2 parallel MPI-processes     *
           *              working on a common directory               *
           ************************************************************
------------------------------------------------------------------------------
                           ORCA GTO INTEGRAL CALCULATION
                           -- RI-GTO INTEGRALS CHOSEN --
------------------------------------------------------------------------------

                         BASIS SET STATISTICS AND STARTUP INFO

Gaussian basis set:
 # of primitive gaussian shells          ...  144
 # of primitive gaussian functions       ...  252
 # of contracted shells                  ...   78
 # of contracted basis functions         ...  158
 Highest angular momentum                ...    2
 Maximum contraction depth               ...    5
Auxiliary gaussian basis set:
 # of primitive gaussian shells          ...  264
 # of primitive gaussian functions       ...  682
 # of contracted shells                  ...  165
 # of contracted aux-basis functions     ...  475
 Highest angular momentum                ...    4
 Maximum contraction depth               ...    7
Ratio of auxiliary to basis functions    ...  3.01
Integral package used                  ... LIBINT
 One Electron integrals                  ... done
 Ordering auxiliary basis shells         ... done
 Integral threshhold             Thresh  ...  1.000e-10
 Primitive cut-off               TCut    ...  1.000e-11
 Pre-screening matrix                    ... done
 Shell pair data                         ... 
 Ordering of the shell pairs             ... done (   0.000 sec) 2923 of 3081 pairs
 Determination of significant pairs      ... done (   0.000 sec)
 Creation of shell pair data             ... done (   0.000 sec)
 Storage of shell pair data              ... done (   0.000 sec)
 Shell pair data done in (   0.001 sec)
 Computing two index integrals           ... done
 Cholesky decomposition of the V-matrix  ... done


Timings:
 Total evaluation time                   ...   0.166 sec (  0.003 min)
 One electron matrix time                ...   0.024 sec (  0.000 min) = 14.5%
 Schwartz matrix evaluation time         ...   0.074 sec (  0.001 min) = 44.7%
 Two index repulsion integral time       ...   0.004 sec (  0.000 min) =  2.6%
 Cholesky decomposition of V             ...   0.004 sec (  0.000 min) =  2.5%
 Three index repulsion integral time     ...   0.000 sec (  0.000 min) =  0.0%

           ************************************************************
           *              Shut down parallel processing               *
           ************************************************************


           ************************************************************
           *        Program running with 2 parallel MPI-processes     *
           *              working on a common directory               *
           ************************************************************
-------------------------------------------------------------------------------
                                 ORCA SCF
-------------------------------------------------------------------------------

------------
SCF SETTINGS
------------
Hamiltonian:
 Density Functional     Method          .... DFT(GTOs)
 Exchange Functional    Exchange        .... PBE
   PBE kappa parameter  XKappa          ....  0.804000
 Correlation Functional Correlation     .... PBE
 LDA part of GGA corr.  LDAOpt          .... PW91-LDA
 Gradients option       PostSCFGGA      .... off
   NL short-range parameter             ....  6.400000
 RI-approximation to the Coulomb term is turned on
   Number of auxiliary basis functions  .... 475


General Settings:
 Integral files         IntName         .... 3965
 Hartree-Fock type      HFTyp           .... RHF
 Total Charge           Charge          ....    0
 Multiplicity           Mult            ....    1
 Number of Electrons    NEL             ....   56
 Basis Dimension        Dim             ....  158
 Nuclear Repulsion      ENuc            ....    315.6490151528 Eh

Convergence Acceleration:
 DIIS                   CNVDIIS         .... on
   Start iteration      DIISMaxIt       ....    12
   Startup error        DIISStart       ....  0.200000
   # of expansion vecs  DIISMaxEq       ....     5
   Bias factor          DIISBfac        ....   1.050
   Max. coefficient     DIISMaxC        ....  10.000
 Newton-Raphson         CNVNR           .... off
 SOSCF                  CNVSOSCF        .... on
   Start iteration      SOSCFMaxIt      ....   150
   Startup grad/error   SOSCFStart      ....  0.003300
 Level Shifting         CNVShift        .... on
   Level shift para.    LevelShift      ....    0.2500
   Turn off err/grad.   ShiftErr        ....    0.0010
 Zerner damping         CNVZerner       .... off
 Static damping         CNVDamp         .... on
   Fraction old density DampFac         ....    0.7000
   Max. Damping (<1)    DampMax         ....    0.9800
   Min. Damping (>=0)   DampMin         ....    0.0000
   Turn off err/grad.   DampErr         ....    0.1000
 Fernandez-Rico         CNVRico         .... off

SCF Procedure:
 Maximum # iterations   MaxIter         ....   125
 SCF integral mode      SCFMode         .... Direct
   Integral package                     .... LIBINT
 Reset frequeny         DirectResetFreq ....    20
 Integral Threshold     Thresh          ....  1.000e-10 Eh
 Primitive CutOff       TCut            ....  1.000e-11 Eh

Convergence Tolerance:
 Convergence Check Mode ConvCheckMode   .... Total+1el-Energy
 Energy Change          TolE            ....  1.000e-06 Eh
 1-El. energy change                    ....  1.000e-03 Eh
 Orbital Gradient       TolG            ....  5.000e-05
 Orbital Rotation angle TolX            ....  5.000e-05
 DIIS Error             TolErr          ....  1.000e-06


Diagonalization of the overlap matrix:
Smallest eigenvalue                        ... 1.305e-03
Time for diagonalization                   ...    0.013 sec
Threshold for overlap eigenvalues          ... 1.000e-08
Number of eigenvalues below threshold      ... 0
Time for construction of square roots      ...    0.003 sec
Total time needed                          ...    0.017 sec

-------------------
DFT GRID GENERATION
-------------------

General Integration Accuracy     IntAcc      ...  4.340
Radial Grid Type                 RadialGrid  ... Gauss-Chebyshev
Angular Grid (max. acc.)         AngularGrid ... Lebedev-110
Angular grid pruning method      GridPruning ... 3 (G Style)
Weight generation scheme         WeightScheme... Becke
Basis function cutoff            BFCut       ...    1.0000e-10
Integration weight cutoff        WCut        ...    1.0000e-14
Grids for H and He will be reduced by one unit

# of grid points (after initial pruning)     ...  21180 (   0.0 sec)
# of grid points (after weights+screening)   ...  19418 (   0.1 sec)
nearest neighbour list constructed           ...    0.0 sec
Grid point re-assignment to atoms done       ...    0.0 sec
Grid point division into batches done        ...    0.0 sec
Reduced shell lists constructed in    0.1 sec

Total number of grid points                  ...    19418
Total number of batches                      ...      311
Average number of points per batch           ...       62
Average number of grid points per atom       ...     1022
Average number of shells per batch           ...    56.83 (72.86%)
Average number of basis functions per batch  ...   111.04 (70.28%)
Average number of large shells per batch     ...    44.76 (78.76%)
Average number of large basis fcns per batch ...    86.18 (77.61%)
Maximum spatial batch extension              ...  18.50, 18.52, 19.91 au
Average spatial batch extension              ...   1.44,  1.46,  1.51 au

Time for grid setup =    0.167 sec

------------------------------
INITIAL GUESS: MODEL POTENTIAL
------------------------------
Loading Hartree-Fock densities                     ... done
Calculating cut-offs                               ... done
Setting up the integral package                    ... done
Initializing the effective Hamiltonian             ... done
Starting the Coulomb interaction                   ... done (   0.1 sec)
Reading the grid                                   ... done
Mapping shells                                     ... done
Starting the XC term evaluation                    ... done (   0.1 sec)
  promolecular density results
     # of electrons  =     55.991028627
     EX              =    -42.416821421
     EC              =     -1.837879884
     EX+EC           =    -44.254701305
Transforming the Hamiltonian                       ... done (   0.0 sec)
Diagonalizing the Hamiltonian                      ... done (   0.0 sec)
Back transforming the eigenvectors                 ... done (   0.0 sec)
Now organizing SCF variables                       ... done
                      ------------------
                      INITIAL GUESS DONE (   0.4 sec)
                      ------------------
--------------
SCF ITERATIONS
--------------
ITER       Energy         Delta-E        Max-DP      RMS-DP      [F,P]     Damp
               ***  Starting incremental Fock matrix formation  ***
  0   -310.2029564984   0.000000000000 0.07285871  0.00259662  0.2205018 0.7000
  1   -310.3077962530  -0.104839754562 0.04200418  0.00184497  0.0807983 0.7000
                               ***Turning on DIIS***
  2   -310.3440239234  -0.036227670397 0.05336600  0.00281891  0.0244697 0.0000
  3   -310.3970747767  -0.053050853340 0.03123836  0.00126367  0.0497449 0.0000
  4   -310.4139505710  -0.016875794274 0.00880184  0.00039562  0.0116720 0.0000
  5   -310.4148342543  -0.000883683315 0.00410002  0.00016982  0.0071969 0.0000
                      *** Initiating the SOSCF procedure ***
                           *** Shutting down DIIS ***
                      *** Re-Reading the Fockian *** 
                      *** Removing any level shift *** 
ITER      Energy       Delta-E        Grad      Rot      Max-DP    RMS-DP
  6   -310.41494402  -0.0001097691  0.000347  0.000347  0.002270  0.000090
               *** Restarting incremental Fock matrix formation ***
  7   -310.41495004  -0.0000060148  0.000148  0.000293  0.001095  0.000030
  8   -310.41494846   0.0000015821  0.000232  0.000199  0.000693  0.000018
  9   -310.41495097  -0.0000025175  0.000014  0.000032  0.000070  0.000003
 10   -310.41495096   0.0000000163  0.000026  0.000020  0.000044  0.000002
                 **** Energy Check signals convergence ****
              ***Rediagonalizing the Fockian in SOSCF/NRSCF***

               *****************************************************
               *                     SUCCESS                       *
               *           SCF CONVERGED AFTER  11 CYCLES          *
               *****************************************************

Setting up the final grid:

General Integration Accuracy     IntAcc      ...  4.670
Radial Grid Type                 RadialGrid  ... Gauss-Chebyshev
Angular Grid (max. acc.)         AngularGrid ... Lebedev-302
Angular grid pruning method      GridPruning ... 3 (G Style)
Weight generation scheme         WeightScheme... Becke
Basis function cutoff            BFCut       ...    1.0000e-10
Integration weight cutoff        WCut        ...    1.0000e-14
Grids for H and He will be reduced by one unit

# of grid points (after initial pruning)     ...  84212 (   0.0 sec)
# of grid points (after weights+screening)   ...  76073 (   0.1 sec)
nearest neighbour list constructed           ...    0.0 sec
Grid point re-assignment to atoms done       ...    0.0 sec
Grid point division into batches done        ...    0.2 sec
Reduced shell lists constructed in    0.5 sec

Total number of grid points                  ...    76073
Total number of batches                      ...     1197
Average number of points per batch           ...       63
Average number of grid points per atom       ...     4004
Average number of shells per batch           ...    53.49 (68.58%)
Average number of basis functions per batch  ...   104.09 (65.88%)
Average number of large shells per batch     ...    41.25 (77.11%)
Average number of large basis fcns per batch ...    78.90 (75.80%)
Maximum spatial batch extension              ...  15.75, 18.89, 15.88 au
Average spatial batch extension              ...   0.97,  0.98,  0.97 au

Final grid set up in    0.7 sec
Final integration                            ... done (   0.5 sec)
Change in XC energy                          ...     0.000430090
Integrated number of electrons               ...    55.999964878
Previous integrated no of electrons          ...    55.999364377

----------------
TOTAL SCF ENERGY
----------------

Total Energy       :         -310.41452089 Eh           -8446.80854 eV

Components:
Nuclear Repulsion  :          315.64901515 Eh            8589.24637 eV
Electronic Energy  :         -626.06353604 Eh          -17036.05491 eV

One Electron Energy:        -1045.06482524 Eh          -28437.65964 eV
Two Electron Energy:          419.00128919 Eh           11401.60473 eV

Virial components:
Potential Energy   :         -617.72484739 Eh          -16809.14766 eV
Kinetic Energy     :          307.31032649 Eh            8362.33912 eV
Virial Ratio       :            2.01010117


DFT components:
N(Alpha)           :       27.999982438760 electrons
N(Beta)            :       27.999982438760 electrons
N(Total)           :       55.999964877519 electrons
E(X)               :      -43.379249228256 Eh       
E(C)               :       -1.854480876312 Eh       
E(XC)              :      -45.233730104569 Eh       

---------------
SCF CONVERGENCE
---------------

  Last Energy change         ...   -2.4832e-08  Tolerance :   1.0000e-06
  Last MAX-Density change    ...    1.1310e-05  Tolerance :   1.0000e-05
  Last RMS-Density change    ...    4.9378e-07  Tolerance :   1.0000e-06
  Last Orbital Gradient      ...    1.7407e-06  Tolerance :   5.0000e-05
  Last Orbital Rotation      ...    3.2091e-06  Tolerance :   5.0000e-05

             **** THE GBW FILE WAS UPDATED (3965.gbw) ****
             **** DENSITY FILE WAS UPDATED (3965.scfp.tmp) ****
             **** ENERGY FILE WAS UPDATED (3965.en.tmp) ****

                    ********************************
                    * MULLIKEN POPULATION ANALYSIS *
                    ********************************

-----------------------
MULLIKEN ATOMIC CHARGES
-----------------------
   0 C :    0.035639
   1 C :    0.053244
   2 O :   -0.282115
   3 C :    0.085671
   4 C :   -0.126994
   5 C :   -0.021521
   6 C :   -0.040972
   7 H :    0.025606
   8 H :    0.002923
   9 H :    0.013596
  10 H :    0.001808
  11 H :    0.148233
  12 H :   -0.017898
  13 H :   -0.007313
  14 H :    0.014371
  15 H :    0.027284
  16 H :    0.027170
  17 H :    0.025519
  18 H :    0.035750
Sum of atomic charges:   -0.0000000

--------------------------------
MULLIKEN REDUCED ORBITAL CHARGES
--------------------------------
  0 C s       :     2.971586  s :     2.971586
      pz      :     0.998880  p :     2.968534
      px      :     0.971503
      py      :     0.998151
      dz2     :     0.003751  d :     0.024241
      dxz     :     0.004654
      dyz     :     0.005106
      dx2y2   :     0.005472
      dxy     :     0.005258
  1 C s       :     3.052088  s :     3.052088
      pz      :     0.848824  p :     2.824270
      px      :     0.947225
      py      :     1.028221
      dz2     :     0.015537  d :     0.070398
      dxz     :     0.015688
      dyz     :     0.017152
      dx2y2   :     0.013100
      dxy     :     0.008921
  2 O s       :     3.738349  s :     3.738349
      pz      :     1.197964  p :     4.531143
      px      :     1.757083
      py      :     1.576095
      dz2     :     0.001495  d :     0.012623
      dxz     :     0.002568
      dyz     :     0.004526
      dx2y2   :     0.001978
      dxy     :     0.002056
  3 C s       :     2.967733  s :     2.967733
      pz      :     0.946113  p :     2.913624
      px      :     0.964081
      py      :     1.003429
      dz2     :     0.004255  d :     0.032972
      dxz     :     0.006453
      dyz     :     0.006968
      dx2y2   :     0.008290
      dxy     :     0.007005
  4 C s       :     3.145253  s :     3.145253
      pz      :     0.908462  p :     2.938036
      px      :     0.988400
      py      :     1.041174
      dz2     :     0.009240  d :     0.043705
      dxz     :     0.011588
      dyz     :     0.008683
      dx2y2   :     0.007244
      dxy     :     0.006950
  5 C s       :     3.043642  s :     3.043642
      pz      :     1.042075  p :     2.943646
      px      :     0.979484
      py      :     0.922087
      dz2     :     0.005513  d :     0.034233
      dxz     :     0.004136
      dyz     :     0.008433
      dx2y2   :     0.007673
      dxy     :     0.008477
  6 C s       :     3.052245  s :     3.052245
      pz      :     0.984991  p :     2.954583
      px      :     0.996367
      py      :     0.973225
      dz2     :     0.007224  d :     0.034144
      dxz     :     0.006072
      dyz     :     0.008144
      dx2y2   :     0.005872
      dxy     :     0.006833
  7 H s       :     0.950851  s :     0.950851
      pz      :     0.006583  p :     0.023543
      px      :     0.005524
      py      :     0.011436
  8 H s       :     0.973006  s :     0.973006
      pz      :     0.008644  p :     0.024072
      px      :     0.005414
      py      :     0.010013
  9 H s       :     0.962320  s :     0.962320
      pz      :     0.011799  p :     0.024084
      px      :     0.006275
      py      :     0.006010
 10 H s       :     0.978386  s :     0.978386
      pz      :     0.006169  p :     0.019807
      px      :     0.004349
      py      :     0.009289
 11 H s       :     0.782066  s :     0.782066
      pz      :     0.024344  p :     0.069702
      px      :     0.020118
      py      :     0.025239
 12 H s       :     0.994917  s :     0.994917
      pz      :     0.011163  p :     0.022981
      px      :     0.006361
      py      :     0.005457
 13 H s       :     0.984544  s :     0.984544
      pz      :     0.008577  p :     0.022768
      px      :     0.004756
      py      :     0.009435
 14 H s       :     0.962652  s :     0.962652
      pz      :     0.010379  p :     0.022976
      px      :     0.006335
      py      :     0.006262
 15 H s       :     0.949230  s :     0.949230
      pz      :     0.007530  p :     0.023487
      px      :     0.007536
      py      :     0.008420
 16 H s       :     0.949265  s :     0.949265
      pz      :     0.005786  p :     0.023565
      px      :     0.012505
      py      :     0.005274
 17 H s       :     0.950978  s :     0.950978
      pz      :     0.009519  p :     0.023503
      px      :     0.008767
      py      :     0.005216
 18 H s       :     0.940768  s :     0.940768
      pz      :     0.004641  p :     0.023483
      px      :     0.010863
      py      :     0.007979


                     *******************************
                     * LOEWDIN POPULATION ANALYSIS *
                     *******************************

----------------------
LOEWDIN ATOMIC CHARGES
----------------------
   0 C :   -0.076811
   1 C :    0.041839
   2 O :   -0.113121
   3 C :   -0.048503
   4 C :   -0.042135
   5 C :   -0.047439
   6 C :   -0.049100
   7 H :    0.029095
   8 H :    0.020735
   9 H :    0.029146
  10 H :    0.022955
  11 H :    0.063443
  12 H :    0.025850
  13 H :    0.020573
  14 H :    0.024360
  15 H :    0.023958
  16 H :    0.025388
  17 H :    0.022251
  18 H :    0.027516

-------------------------------
LOEWDIN REDUCED ORBITAL CHARGES
-------------------------------
  0 C s       :     2.846857  s :     2.846857
      pz      :     1.066248  p :     3.161101
      px      :     1.028877
      py      :     1.065976
      dz2     :     0.011676  d :     0.068854
      dxz     :     0.012274
      dyz     :     0.014546
      dx2y2   :     0.017879
      dxy     :     0.012479
  1 C s       :     2.843524  s :     2.843524
      pz      :     0.892865  p :     2.955868
      px      :     1.007631
      py      :     1.055373
      dz2     :     0.032013  d :     0.158768
      dxz     :     0.032683
      dyz     :     0.040800
      dx2y2   :     0.034117
      dxy     :     0.019156
  2 O s       :     3.449862  s :     3.449862
      pz      :     1.266543  p :     4.638826
      px      :     1.747001
      py      :     1.625283
      dz2     :     0.003571  d :     0.024433
      dxz     :     0.005451
      dyz     :     0.010337
      dx2y2   :     0.002599
      dxy     :     0.002475
  3 C s       :     2.843790  s :     2.843790
      pz      :     1.051386  p :     3.114729
      px      :     1.023559
      py      :     1.039785
      dz2     :     0.012373  d :     0.089984
      dxz     :     0.016507
      dyz     :     0.020200
      dx2y2   :     0.023206
      dxy     :     0.017699
  4 C s       :     2.820442  s :     2.820442
      pz      :     0.999694  p :     3.111420
      px      :     1.026136
      py      :     1.085590
      dz2     :     0.024147  d :     0.110272
      dxz     :     0.030056
      dyz     :     0.021383
      dx2y2   :     0.019249
      dxy     :     0.015439
  5 C s       :     2.822655  s :     2.822655
      pz      :     1.093752  p :     3.135030
      px      :     1.058387
      py      :     0.982892
      dz2     :     0.012868  d :     0.089754
      dxz     :     0.011085
      dyz     :     0.021524
      dx2y2   :     0.021280
      dxy     :     0.022997
  6 C s       :     2.823953  s :     2.823953
      pz      :     1.038640  p :     3.135760
      px      :     1.071002
      py      :     1.026119
      dz2     :     0.018714  d :     0.089386
      dxz     :     0.017830
      dyz     :     0.019011
      dx2y2   :     0.015382
      dxy     :     0.018449
  7 H s       :     0.903480  s :     0.903480
      pz      :     0.016730  p :     0.067425
      px      :     0.017578
      py      :     0.033117
  8 H s       :     0.912594  s :     0.912594
      pz      :     0.022981  p :     0.066672
      px      :     0.015855
      py      :     0.027836
  9 H s       :     0.903486  s :     0.903486
      pz      :     0.034088  p :     0.067368
      px      :     0.019272
      py      :     0.014008
 10 H s       :     0.912515  s :     0.912515
      pz      :     0.020720  p :     0.064530
      px      :     0.014192
      py      :     0.029618
 11 H s       :     0.753392  s :     0.753392
      pz      :     0.058360  p :     0.183165
      px      :     0.052902
      py      :     0.071903
 12 H s       :     0.906625  s :     0.906625
      pz      :     0.032729  p :     0.067526
      px      :     0.018909
      py      :     0.015888
 13 H s       :     0.912551  s :     0.912551
      pz      :     0.023730  p :     0.066876
      px      :     0.014178
      py      :     0.028968
 14 H s       :     0.903662  s :     0.903662
      pz      :     0.031945  p :     0.071978
      px      :     0.020526
      py      :     0.019507
 15 H s       :     0.905286  s :     0.905286
      pz      :     0.023403  p :     0.070756
      px      :     0.022413
      py      :     0.024940
 16 H s       :     0.903921  s :     0.903921
      pz      :     0.018124  p :     0.070691
      px      :     0.037497
      py      :     0.015071
 17 H s       :     0.907005  s :     0.907005
      pz      :     0.029151  p :     0.070743
      px      :     0.026334
      py      :     0.015259
 18 H s       :     0.901711  s :     0.901711
      pz      :     0.014249  p :     0.070773
      px      :     0.032925
      py      :     0.023598


                      *****************************
                      * MAYER POPULATION ANALYSIS *
                      *****************************

  NA   - Mulliken gross atomic population
  ZA   - Total nuclear charge
  QA   - Mulliken gross atomic charge
  VA   - Mayer's total valence
  BVA  - Mayer's bonded valence
  FA   - Mayer's free valence

  ATOM       NA         ZA         QA         VA         BVA        FA
  0 C      5.9644     6.0000     0.0356     3.9619     3.9619     0.0000
  1 C      5.9468     6.0000     0.0532     4.1640     4.1640     0.0000
  2 O      8.2821     8.0000    -0.2821     2.1176     2.1176     0.0000
  3 C      5.9143     6.0000     0.0857     3.9685     3.9685     0.0000
  4 C      6.1270     6.0000    -0.1270     4.1075     4.1075    -0.0000
  5 C      6.0215     6.0000    -0.0215     3.9611     3.9611    -0.0000
  6 C      6.0410     6.0000    -0.0410     3.9806     3.9806    -0.0000
  7 H      0.9744     1.0000     0.0256     0.9961     0.9961    -0.0000
  8 H      0.9971     1.0000     0.0029     1.0017     1.0017     0.0000
  9 H      0.9864     1.0000     0.0136     0.9941     0.9941     0.0000
 10 H      0.9982     1.0000     0.0018     0.9783     0.9783    -0.0000
 11 H      0.8518     1.0000     0.1482     1.0289     1.0289     0.0000
 12 H      1.0179     1.0000    -0.0179     0.9976     0.9976     0.0000
 13 H      1.0073     1.0000    -0.0073     0.9914     0.9914     0.0000
 14 H      0.9856     1.0000     0.0144     1.0101     1.0101    -0.0000
 15 H      0.9727     1.0000     0.0273     0.9872     0.9872    -0.0000
 16 H      0.9728     1.0000     0.0272     0.9793     0.9793     0.0000
 17 H      0.9745     1.0000     0.0255     0.9879     0.9879    -0.0000
 18 H      0.9643     1.0000     0.0357     0.9781     0.9781    -0.0000

  Mayer bond orders larger than 0.1
B(  0-C ,  1-C ) :   1.0924 B(  0-C ,  7-H ) :   0.9548 B(  0-C ,  8-H ) :   0.9512 
B(  0-C ,  9-H ) :   0.9480 B(  1-C ,  2-O ) :   1.0092 B(  1-C ,  3-C ) :   1.0479 
B(  1-C , 10-H ) :   0.9089 B(  2-O , 11-H ) :   0.9845 B(  3-C ,  4-C ) :   1.0833 
B(  3-C , 12-H ) :   0.9001 B(  3-C , 13-H ) :   0.9115 B(  4-C ,  5-C ) :   0.9906 
B(  4-C ,  6-C ) :   1.0023 B(  4-C , 14-H ) :   0.9365 B(  5-C ,  6-C ) :   1.0484 
B(  5-C , 15-H ) :   0.9443 B(  5-C , 16-H ) :   0.9456 B(  6-C , 17-H ) :   0.9444 
B(  6-C , 18-H ) :   0.9475 


 *********************************** NBO 6.0 ***********************************
             N A T U R A L   A T O M I C   O R B I T A L   A N D
          N A T U R A L   B O N D   O R B I T A L   A N A L Y S I S
 ***************************** Kiya KiyaLu (100703) ****************************
  (c) Copyright 1996-2015 Board of Regents of the University of Wisconsin System
      on behalf of the Theoretical Chemistry Institute.  All rights reserved.

          Cite this program as:

          NBO 6.0.  E. D. Glendening, J. K. Badenhoop, A. E. Reed,
          J. E. Carpenter, J. A. Bohmann, C. M. Morales, C. R. Landis,
          and F. Weinhold (Theoretical Chemistry Institute, University
          of Wisconsin, Madison, WI, 2013); http://nbo6.chem.wisc.edu/

       /NPA    / : Natural Population Analysis
       /NBO    / : Natural Bond Orbital Analysis
       /AONBO  / : Write the AO to NBO transformation to lfn77
       /FILE   / : Set to 3965

 Filename set to 3965

 Job title:  *** NBO job generated by orca_scf

 Warning: MOs are non-orthogonal; program will continue

 Warning: -2073.08896 electrons reside outside the linearly independent MO space


 NATURAL POPULATIONS:  Natural atomic orbital occupancies

  NAO Atom No lang   Type(AO)    Occupancy      Energy
 -------------------------------------------------------
   1    C  1  s      Cor( 1s)     1.99916      -9.76808
   2    C  1  s      Val( 2s)     1.09507      -0.21723
   3    C  1  s      Ryd( 3s)     0.00049       0.83103
   4    C  1  px     Val( 2p)     1.10902      -0.07063
   5    C  1  px     Ryd( 3p)     0.00138       0.47830
   6    C  1  py     Val( 2p)     1.23410      -0.06790
   7    C  1  py     Ryd( 3p)     0.00246       0.61624
   8    C  1  pz     Val( 2p)     1.23281      -0.06868
   9    C  1  pz     Ryd( 3p)     0.00236       0.59188
  10    C  1  dxy    Ryd( 3d)     0.00044       2.12130
  11    C  1  dxz    Ryd( 3d)     0.00040       2.16184
  12    C  1  dyz    Ryd( 3d)     0.00054       2.28589
  13    C  1  dx2y2  Ryd( 3d)     0.00051       2.24702
  14    C  1  dz2    Ryd( 3d)     0.00038       2.20013

  15    C  2  s      Cor( 1s)     1.99894      -9.82360
  16    C  2  s      Val( 2s)     0.91503      -0.17241
  17    C  2  s      Ryd( 3s)     0.00180       0.81372
  18    C  2  px     Val( 2p)     0.99630      -0.06842
  19    C  2  px     Ryd( 3p)     0.00506       0.71972
  20    C  2  py     Val( 2p)     1.10204      -0.06213
  21    C  2  py     Ryd( 3p)     0.00478       0.61423
  22    C  2  pz     Val( 2p)     0.84704      -0.06764
  23    C  2  pz     Ryd( 3p)     0.00338       0.68780
  24    C  2  dxy    Ryd( 3d)     0.00080       2.08083
  25    C  2  dxz    Ryd( 3d)     0.00154       2.06888
  26    C  2  dyz    Ryd( 3d)     0.00167       2.29059
  27    C  2  dx2y2  Ryd( 3d)     0.00117       2.22721
  28    C  2  dz2    Ryd( 3d)     0.00147       2.10062

  29    O  3  s      Cor( 1s)     1.99975     -18.55466
  30    O  3  s      Val( 2s)     1.66733      -0.77579
  31    O  3  s      Ryd( 3s)     0.00100       1.42851
  32    O  3  px     Val( 2p)     1.86351      -0.23456
  33    O  3  px     Ryd( 3p)     0.00195       1.06202
  34    O  3  py     Val( 2p)     1.75452      -0.23861
  35    O  3  py     Ryd( 3p)     0.00158       1.11536
  36    O  3  pz     Val( 2p)     1.43627      -0.24297
  37    O  3  pz     Ryd( 3p)     0.00272       1.13295
  38    O  3  dxy    Ryd( 3d)     0.00130       2.76595
  39    O  3  dxz    Ryd( 3d)     0.00060       2.85746
  40    O  3  dyz    Ryd( 3d)     0.00129       3.05471
  41    O  3  dx2y2  Ryd( 3d)     0.00130       2.74174
  42    O  3  dz2    Ryd( 3d)     0.00055       2.88568

  43    C  4  s      Cor( 1s)     1.99900      -9.76340
  44    C  4  s      Val( 2s)     1.01067      -0.18490
  45    C  4  s      Ryd( 3s)     0.00183       0.86556
  46    C  4  px     Val( 2p)     1.09620      -0.06592
  47    C  4  px     Ryd( 3p)     0.00263       0.64367
  48    C  4  py     Val( 2p)     1.14178      -0.07099
  49    C  4  py     Ryd( 3p)     0.00179       0.62026
  50    C  4  pz     Val( 2p)     1.22126      -0.07243
  51    C  4  pz     Ryd( 3p)     0.00648       0.81571
  52    C  4  dxy    Ryd( 3d)     0.00064       2.07986
  53    C  4  dxz    Ryd( 3d)     0.00051       2.21730
  54    C  4  dyz    Ryd( 3d)     0.00060       2.30849
  55    C  4  dx2y2  Ryd( 3d)     0.00072       2.25010
  56    C  4  dz2    Ryd( 3d)     0.00042       2.17703

  57    C  5  s      Cor( 1s)     1.99893      -9.77131
  58    C  5  s      Val( 2s)     0.91632      -0.15150
  59    C  5  s      Ryd( 3s)     0.00289       0.78952
  60    C  5  px     Val( 2p)     1.08450      -0.05294
  61    C  5  px     Ryd( 3p)     0.00316       0.67561
  62    C  5  py     Val( 2p)     1.13371      -0.07229
  63    C  5  py     Ryd( 3p)     0.00312       0.67113
  64    C  5  pz     Val( 2p)     1.10009      -0.06084
  65    C  5  pz     Ryd( 3p)     0.00576       0.76502
  66    C  5  dxy    Ryd( 3d)     0.00055       2.04049
  67    C  5  dxz    Ryd( 3d)     0.00111       2.34408
  68    C  5  dyz    Ryd( 3d)     0.00090       2.16306
  69    C  5  dx2y2  Ryd( 3d)     0.00076       2.10023
  70    C  5  dz2    Ryd( 3d)     0.00096       2.18038

  71    C  6  s      Cor( 1s)     1.99906      -9.77172
  72    C  6  s      Val( 2s)     1.00170      -0.17984
  73    C  6  s      Ryd( 3s)     0.00087       0.74097
  74    C  6  px     Val( 2p)     1.20979      -0.05028
  75    C  6  px     Ryd( 3p)     0.00375       0.72384
  76    C  6  py     Val( 2p)     1.06172      -0.05521
  77    C  6  py     Ryd( 3p)     0.00394       0.48420
  78    C  6  pz     Val( 2p)     1.14967      -0.06949
  79    C  6  pz     Ryd( 3p)     0.00074       0.53840
  80    C  6  dxy    Ryd( 3d)     0.00083       2.26339
  81    C  6  dxz    Ryd( 3d)     0.00049       2.11481
  82    C  6  dyz    Ryd( 3d)     0.00093       2.18301
  83    C  6  dx2y2  Ryd( 3d)     0.00092       2.27062
  84    C  6  dz2    Ryd( 3d)     0.00067       2.02272

  85    C  7  s      Cor( 1s)     1.99905      -9.77213
  86    C  7  s      Val( 2s)     1.00381      -0.18071
  87    C  7  s      Ryd( 3s)     0.00101       0.74098
  88    C  7  px     Val( 2p)     1.21819      -0.05294
  89    C  7  px     Ryd( 3p)     0.00338       0.72492
  90    C  7  py     Val( 2p)     1.09032      -0.06338
  91    C  7  py     Ryd( 3p)     0.00273       0.50891
  92    C  7  pz     Val( 2p)     1.11600      -0.05861
  93    C  7  pz     Ryd( 3p)     0.00204       0.52362
  94    C  7  dxy    Ryd( 3d)     0.00063       2.21225
  95    C  7  dxz    Ryd( 3d)     0.00063       2.23514
  96    C  7  dyz    Ryd( 3d)     0.00112       2.04032
  97    C  7  dx2y2  Ryd( 3d)     0.00071       2.17629
  98    C  7  dz2    Ryd( 3d)     0.00071       2.19961

  99    H  8  s      Val( 1s)     0.76413       0.07503
 100    H  8  s      Ryd( 2s)     0.00287       0.33125
 101    H  8  px     Ryd( 2p)     0.00019       1.79635
 102    H  8  py     Ryd( 2p)     0.00063       2.14499
 103    H  8  pz     Ryd( 2p)     0.00023       1.81703

 104    H  9  s      Val( 1s)     0.78576       0.05436
 105    H  9  s      Ryd( 2s)     0.00288       0.34568
 106    H  9  px     Ryd( 2p)     0.00021       1.74209
 107    H  9  py     Ryd( 2p)     0.00051       2.05049
 108    H  9  pz     Ryd( 2p)     0.00040       1.95105

 109    H 10  s      Val( 1s)     0.77043       0.06320
 110    H 10  s      Ryd( 2s)     0.00186       0.34238
 111    H 10  px     Ryd( 2p)     0.00026       1.80748
 112    H 10  py     Ryd( 2p)     0.00019       1.76127
 113    H 10  pz     Ryd( 2p)     0.00067       2.17134

 114    H 11  s      Val( 1s)     0.78113       0.08285
 115    H 11  s      Ryd( 2s)     0.00352       0.34932
 116    H 11  px     Ryd( 2p)     0.00015       1.83533
 117    H 11  py     Ryd( 2p)     0.00065       2.01814
 118    H 11  pz     Ryd( 2p)     0.00043       1.93758

 119    H 12  s      Val( 1s)     0.55008       0.07937
 120    H 12  s      Ryd( 2s)     0.00214       0.42129
 121    H 12  px     Ryd( 2p)     0.00140       1.73865
 122    H 12  py     Ryd( 2p)     0.00143       2.05620
 123    H 12  pz     Ryd( 2p)     0.00150       2.10105

 124    H 13  s      Val( 1s)     0.76708       0.06279
 125    H 13  s      Ryd( 2s)     0.00288       0.37400
 126    H 13  px     Ryd( 2p)     0.00027       1.86730
 127    H 13  py     Ryd( 2p)     0.00019       1.77421
 128    H 13  pz     Ryd( 2p)     0.00065       2.15681

 129    H 14  s      Val( 1s)     0.77491       0.06280
 130    H 14  s      Ryd( 2s)     0.00433       0.35234
 131    H 14  px     Ryd( 2p)     0.00013       1.80016
 132    H 14  py     Ryd( 2p)     0.00056       2.05749
 133    H 14  pz     Ryd( 2p)     0.00042       2.01693

 134    H 15  s      Val( 1s)     0.75352       0.10572
 135    H 15  s      Ryd( 2s)     0.00455       0.34031
 136    H 15  px     Ryd( 2p)     0.00032       2.00083
 137    H 15  py     Ryd( 2p)     0.00023       1.76152
 138    H 15  pz     Ryd( 2p)     0.00062       2.16564

 139    H 16  s      Val( 1s)     0.77722       0.08239
 140    H 16  s      Ryd( 2s)     0.00179       0.33532
 141    H 16  px     Ryd( 2p)     0.00036       1.96708
 142    H 16  py     Ryd( 2p)     0.00039       2.04577
 143    H 16  pz     Ryd( 2p)     0.00034       1.81388

 144    H 17  s      Val( 1s)     0.77185       0.08724
 145    H 17  s      Ryd( 2s)     0.00167       0.31866
 146    H 17  px     Ryd( 2p)     0.00077       2.24167
 147    H 17  py     Ryd( 2p)     0.00015       1.85728
 148    H 17  pz     Ryd( 2p)     0.00020       1.71729

 149    H 18  s      Val( 1s)     0.77883       0.08121
 150    H 18  s      Ryd( 2s)     0.00181       0.33795
 151    H 18  px     Ryd( 2p)     0.00045       2.01917
 152    H 18  py     Ryd( 2p)     0.00016       1.78031
 153    H 18  pz     Ryd( 2p)     0.00050       2.02501

 154    H 19  s      Val( 1s)     0.76991       0.09029
 155    H 19  s      Ryd( 2s)     0.00166       0.31963
 156    H 19  px     Ryd( 2p)     0.00062       2.13680
 157    H 19  py     Ryd( 2p)     0.00036       1.94515
 158    H 19  pz     Ryd( 2p)     0.00012       1.75320

   1 low occupancy (<1.9990e) core orbital  found on  C  2
   1 low occupancy (<1.9990e) core orbital  found on  C  5


 Summary of Natural Population Analysis:

                                     Natural Population
             Natural    ---------------------------------------------
  Atom No    Charge        Core      Valence    Rydberg      Total
 --------------------------------------------------------------------
    C  1   -0.67912      1.99916     4.67100    0.00896     6.67912
    C  2    0.11897      1.99894     3.86041    0.02168     5.88103
    O  3   -0.73369      1.99975     6.72164    0.01231     8.73369
    C  4   -0.48452      1.99900     4.46991    0.01561     6.48452
    C  5   -0.25276      1.99893     4.23461    0.01922     6.25276
    C  6   -0.43507      1.99906     4.42288    0.01313     6.43507
    C  7   -0.44032      1.99905     4.42831    0.01296     6.44032
    H  8    0.23195      0.00000     0.76413    0.00393     0.76805
    H  9    0.21026      0.00000     0.78576    0.00399     0.78974
    H 10    0.22658      0.00000     0.77043    0.00299     0.77342
    H 11    0.21412      0.00000     0.78113    0.00475     0.78588
    H 12    0.44344      0.00000     0.55008    0.00647     0.55656
    H 13    0.22893      0.00000     0.76708    0.00399     0.77107
    H 14    0.21966      0.00000     0.77491    0.00543     0.78034
    H 15    0.24075      0.00000     0.75352    0.00573     0.75925
    H 16    0.21990      0.00000     0.77722    0.00288     0.78010
    H 17    0.22535      0.00000     0.77185    0.00280     0.77465
    H 18    0.21826      0.00000     0.77883    0.00291     0.78174
    H 19    0.22732      0.00000     0.76991    0.00276     0.77268
 ====================================================================
 * Total *  0.00000     13.99389    41.85361    0.15249    56.00000

                                 Natural Population
 ---------------------------------------------------------
   Core                      13.99389 ( 99.9564% of   14)
   Valence                   41.85361 ( 99.6515% of   42)
   Natural Minimal Basis     55.84751 ( 99.7277% of   56)
   Natural Rydberg Basis      0.15249 (  0.2723% of   56)
 ---------------------------------------------------------

    Atom No         Natural Electron Configuration
 ----------------------------------------------------------------------------
      C  1      [core]2s( 1.10)2p( 3.58)3p( 0.01)
      C  2      [core]2s( 0.92)2p( 2.95)3p( 0.01)3d( 0.01)
      O  3      [core]2s( 1.67)2p( 5.05)3p( 0.01)3d( 0.01)
      C  4      [core]2s( 1.01)2p( 3.46)3p( 0.01)
      C  5      [core]2s( 0.92)2p( 3.32)3p( 0.01)
      C  6      [core]2s( 1.00)2p( 3.42)3p( 0.01)
      C  7      [core]2s( 1.00)2p( 3.42)3p( 0.01)
      H  8            1s( 0.76)
      H  9            1s( 0.79)
      H 10            1s( 0.77)
      H 11            1s( 0.78)
      H 12            1s( 0.55)
      H 13            1s( 0.77)
      H 14            1s( 0.77)
      H 15            1s( 0.75)
      H 16            1s( 0.78)
      H 17            1s( 0.77)
      H 18            1s( 0.78)
      H 19            1s( 0.77)


 NATURAL BOND ORBITAL ANALYSIS:

                            Occupancies       Lewis Structure    Low   High
         Max    Occ     -------------------  -----------------   occ   occ
  Cycle  Ctr   Thresh    Lewis   non-Lewis     CR  BD  nC  LP    (L)   (NL)
 ============================================================================
    1     2     1.90    55.47092   0.52908      7  19   0   2     0      0
    2     2     1.50    55.47092   0.52908      7  19   0   2     0      0
    3     2     1.90    55.47092   0.52908      7  19   0   2     0      0
 ----------------------------------------------------------------------------

 Structure accepted: No low occupancy Lewis orbitals

 -------------------------------------------------------
   Core                     13.99389 ( 99.956% of  14)
   Valence Lewis            41.47703 ( 98.755% of  42)
  ==================      =============================
   Total Lewis              55.47092 ( 99.055% of  56)
  -----------------------------------------------------
   Valence non-Lewis         0.41762 (  0.746% of  56)
   Rydberg non-Lewis         0.11146 (  0.199% of  56)
  ==================      =============================
   Total non-Lewis           0.52908 (  0.945% of  56)
 -------------------------------------------------------


     (Occupancy)   Bond orbital / Coefficients / Hybrids
 ------------------ Lewis ------------------------------------------------------
   1. (1.99916) CR ( 1) C  1            s(100.00%)
                                         1.0000  0.0000  0.0000  0.0000  0.0000
                                         0.0000  0.0000  0.0000  0.0000  0.0000
                                         0.0000  0.0000  0.0000  0.0000
   2. (1.99894) CR ( 1) C  2            s(100.00%)
                                         1.0000  0.0000  0.0000  0.0000  0.0000
                                         0.0000  0.0000  0.0000  0.0000  0.0000
                                         0.0000  0.0000  0.0000  0.0000
   3. (1.99975) CR ( 1) O  3            s(100.00%)
                                         1.0000  0.0000  0.0000  0.0000  0.0000
                                         0.0000  0.0000  0.0000  0.0000  0.0000
                                         0.0000  0.0000  0.0000  0.0000
   4. (1.99900) CR ( 1) C  4            s(100.00%)
                                         1.0000  0.0000  0.0000  0.0000  0.0000
                                         0.0000  0.0000  0.0000  0.0000  0.0000
                                         0.0000  0.0000  0.0000  0.0000
   5. (1.99893) CR ( 1) C  5            s(100.00%)
                                         1.0000  0.0000  0.0000  0.0000  0.0000
                                         0.0000  0.0000  0.0000  0.0000  0.0000
                                         0.0000  0.0000  0.0000  0.0000
   6. (1.99906) CR ( 1) C  6            s(100.00%)
                                         1.0000  0.0000  0.0000  0.0000  0.0000
                                         0.0000  0.0000  0.0000  0.0000  0.0000
                                         0.0000  0.0000  0.0000  0.0000
   7. (1.99905) CR ( 1) C  7            s(100.00%)
                                         1.0000  0.0000  0.0000  0.0000  0.0000
                                         0.0000  0.0000  0.0000  0.0000  0.0000
                                         0.0000  0.0000  0.0000  0.0000
   8. (1.97582) LP ( 1) O  3            s( 46.81%)p 1.14( 53.15%)d 0.00(  0.04%)
                                         0.0000  0.6841 -0.0095  0.3950 -0.0044
                                        -0.5853  0.0072 -0.1812  0.0004  0.0132
                                         0.0028 -0.0078  0.0048  0.0123
   9. (1.94793) LP ( 2) O  3            s(  0.03%)p99.99( 99.91%)d 2.11(  0.06%)
                                         0.0000  0.0169 -0.0012  0.8298 -0.0165
                                         0.5119 -0.0095  0.2191 -0.0044  0.0098
                                        -0.0007  0.0057 -0.0218  0.0014
  10. (1.98536) BD ( 1) C  1- C  2
               ( 50.43%)   0.7102* C  1 s( 30.50%)p 2.28( 69.46%)d 0.00(  0.03%)
                                         0.0000  0.5523  0.0009  0.8290 -0.0006
                                        -0.0478 -0.0137  0.0693 -0.0074 -0.0014
                                         0.0020 -0.0005  0.0158 -0.0089
               ( 49.57%)   0.7040* C  2 s( 28.83%)p 2.47( 71.12%)d 0.00(  0.04%)
                                         0.0000  0.5369  0.0051 -0.8373  0.0002
                                         0.0399 -0.0199 -0.0906  0.0043 -0.0029
                                         0.0045 -0.0007  0.0168 -0.0104
  11. (1.98595) BD ( 1) C  1- H  8
               ( 61.71%)   0.7855* C  1 s( 23.39%)p 3.27( 76.58%)d 0.00(  0.04%)
                                         0.0000  0.4836  0.0037 -0.3382 -0.0086
                                        -0.7423  0.0094 -0.3166  0.0029  0.0098
                                         0.0037  0.0104 -0.0101 -0.0056
               ( 38.29%)   0.6188* H  8 s( 99.90%)p 0.00(  0.10%)
                                         0.9995 -0.0017  0.0112  0.0265  0.0114
  12. (1.98631) BD ( 1) C  1- H  9
               ( 60.75%)   0.7794* C  1 s( 22.80%)p 3.38( 77.16%)d 0.00(  0.04%)
                                         0.0000  0.4775 -0.0036 -0.2353 -0.0194
                                         0.6495 -0.0041 -0.5422  0.0016 -0.0060
                                         0.0042 -0.0163 -0.0088  0.0012
               ( 39.25%)   0.6265* H  9 s( 99.91%)p 0.00(  0.09%)
                                         0.9995 -0.0030  0.0102 -0.0221  0.0181
  13. (1.98213) BD ( 1) C  1- H 10
               ( 61.36%)   0.7834* C  1 s( 23.26%)p 3.30( 76.70%)d 0.00(  0.04%)
                                         0.0000  0.4823 -0.0001 -0.3771 -0.0156
                                         0.1554 -0.0039  0.7748 -0.0047 -0.0027
                                        -0.0111  0.0058  0.0019  0.0142
               ( 38.64%)   0.6216* H 10 s( 99.90%)p 0.00(  0.10%)
                                         0.9995 -0.0017  0.0146 -0.0052 -0.0271
  14. (1.99060) BD ( 1) C  2- O  3
               ( 32.37%)   0.5689* C  2 s( 19.36%)p 4.15( 80.43%)d 0.01(  0.21%)
                                         0.0000  0.4394  0.0234  0.3581  0.0209
                                        -0.2082 -0.0316 -0.7941 -0.0249 -0.0068
                                        -0.0275  0.0156  0.0048  0.0319
               ( 67.63%)   0.8224* O  3 s( 33.52%)p 1.98( 66.40%)d 0.00(  0.08%)
                                         0.0000  0.5790  0.0045 -0.3392  0.0021
                                         0.2291 -0.0083  0.7045  0.0045 -0.0144
                                        -0.0169  0.0133 -0.0015  0.0092
  15. (1.97603) BD ( 1) C  2- C  4
               ( 48.90%)   0.6993* C  2 s( 29.19%)p 2.42( 70.77%)d 0.00(  0.04%)
                                         0.0000  0.5402 -0.0068  0.3514 -0.0078
                                         0.7153 -0.0069  0.2691  0.0033  0.0112
                                         0.0044  0.0088 -0.0107 -0.0077
               ( 51.10%)   0.7148* C  4 s( 28.19%)p 2.55( 71.77%)d 0.00(  0.04%)
                                         0.0000  0.5310  0.0039 -0.3412 -0.0024
                                        -0.7186  0.0020 -0.2914 -0.0006  0.0104
                                         0.0042  0.0098 -0.0095 -0.0062
  16. (1.96242) BD ( 1) C  2- H 11
               ( 61.14%)   0.7819* C  2 s( 22.56%)p 3.43( 77.40%)d 0.00(  0.04%)
                                         0.0000  0.4749 -0.0099  0.2149 -0.0005
                                        -0.6650 -0.0017  0.5340 -0.0214 -0.0055
                                         0.0060 -0.0158 -0.0083 -0.0003
               ( 38.86%)   0.6234* H 11 s( 99.88%)p 0.00(  0.12%)
                                         0.9994 -0.0073 -0.0085  0.0264 -0.0218
  17. (1.98897) BD ( 1) O  3- H 12
               ( 72.69%)   0.8526* O  3 s( 19.62%)p 4.09( 80.27%)d 0.01(  0.12%)
                                         0.0000  0.4426  0.0166 -0.1980  0.0032
                                         0.5840  0.0132 -0.6484 -0.0412 -0.0176
                                         0.0100 -0.0231 -0.0143 -0.0037
               ( 27.31%)   0.5226* H 12 s( 99.68%)p 0.00(  0.32%)
                                         0.9984 -0.0061  0.0098 -0.0336  0.0443
  18. (1.97577) BD ( 1) C  4- C  5
               ( 50.16%)   0.7082* C  4 s( 29.31%)p 2.41( 70.66%)d 0.00(  0.03%)
                                         0.0000  0.5413  0.0080  0.8288 -0.0002
                                        -0.0470  0.0140  0.1316 -0.0038 -0.0030
                                         0.0046  0.0005  0.0152 -0.0084
               ( 49.84%)   0.7060* C  5 s( 31.15%)p 2.21( 68.82%)d 0.00(  0.03%)
                                         0.0000  0.5582 -0.0029 -0.8152  0.0083
                                         0.0570  0.0081 -0.1401 -0.0240 -0.0034
                                         0.0004  0.0014  0.0159 -0.0061
  19. (1.97196) BD ( 1) C  4- H 13
               ( 61.60%)   0.7848* C  4 s( 21.45%)p 3.66( 78.51%)d 0.00(  0.04%)
                                         0.0000  0.4631 -0.0047 -0.4087 -0.0061
                                         0.2316  0.0129  0.7511 -0.0090 -0.0031
                                        -0.0133  0.0063  0.0029  0.0116
               ( 38.40%)   0.6197* H 13 s( 99.89%)p 0.00(  0.11%)
                                         0.9995 -0.0039  0.0152 -0.0094 -0.0271
  20. (1.97168) BD ( 1) C  4- H 14
               ( 61.34%)   0.7832* C  4 s( 21.02%)p 3.76( 78.94%)d 0.00(  0.04%)
                                         0.0000  0.4585 -0.0034 -0.1707 -0.0016
                                         0.6536  0.0094 -0.5769  0.0160 -0.0049
                                         0.0045 -0.0159 -0.0083  0.0037
               ( 38.66%)   0.6217* H 14 s( 99.90%)p 0.00(  0.10%)
                                         0.9995 -0.0060  0.0051 -0.0251  0.0193
  21. (1.95093) BD ( 1) C  5- C  6
               ( 50.39%)   0.7099* C  5 s( 21.74%)p 3.60( 78.20%)d 0.00(  0.06%)
                                         0.0000  0.4661  0.0099  0.3239  0.0112
                                         0.7699 -0.0034  0.2892 -0.0232  0.0111
                                         0.0128  0.0179 -0.0057  0.0024
               ( 49.61%)   0.7043* C  6 s( 23.41%)p 3.27( 76.52%)d 0.00(  0.07%)
                                         0.0000  0.4838  0.0001 -0.4033  0.0129
                                        -0.2526  0.0140 -0.7337 -0.0004  0.0131
                                         0.0124  0.0186 -0.0053  0.0014
  22. (1.95090) BD ( 1) C  5- C  7
               ( 50.21%)   0.7086* C  5 s( 21.41%)p 3.67( 78.52%)d 0.00(  0.06%)
                                         0.0000  0.4628  0.0019  0.1660  0.0168
                                        -0.5906 -0.0091  0.6391 -0.0108 -0.0033
                                         0.0125 -0.0137 -0.0002  0.0170
               ( 49.79%)   0.7056* C  7 s( 23.36%)p 3.28( 76.58%)d 0.00(  0.07%)
                                         0.0000  0.4833 -0.0033 -0.3819  0.0116
                                        -0.0507 -0.0123 -0.7855  0.0073 -0.0054
                                         0.0130 -0.0145 -0.0002  0.0167
  23. (1.97328) BD ( 1) C  5- H 15
               ( 62.58%)   0.7911* C  5 s( 25.59%)p 2.91( 74.38%)d 0.00(  0.02%)
                                         0.0000  0.5058 -0.0109  0.4500 -0.0073
                                        -0.2329  0.0036 -0.6978  0.0005 -0.0047
                                        -0.0118  0.0054  0.0063  0.0041
               ( 37.42%)   0.6117* H 15 s( 99.89%)p 0.00(  0.11%)
                                         0.9994 -0.0067 -0.0171  0.0103  0.0271
  24. (1.95881) BD ( 1) C  6- C  7
               ( 49.99%)   0.7071* C  6 s( 21.83%)p 3.58( 78.10%)d 0.00(  0.07%)
                                         0.0000  0.4673  0.0039  0.0785  0.0119
                                        -0.7160  0.0085  0.5118  0.0088  0.0048
                                        -0.0015 -0.0101 -0.0208 -0.0107
               ( 50.01%)   0.7072* C  7 s( 21.83%)p 3.58( 78.11%)d 0.00(  0.07%)
                                         0.0000  0.4672  0.0032  0.2526  0.0100
                                         0.8394 -0.0047  0.1107  0.0142  0.0044
                                        -0.0015 -0.0109 -0.0205 -0.0103
  25. (1.98574) BD ( 1) C  6- H 16
               ( 61.29%)   0.7829* C  6 s( 27.22%)p 2.67( 72.75%)d 0.00(  0.03%)
                                         0.0000  0.5217 -0.0054 -0.4755  0.0222
                                         0.5792  0.0167  0.4064  0.0001 -0.0112
                                        -0.0106  0.0084  0.0030 -0.0038
               ( 38.71%)   0.6222* H 16 s( 99.91%)p 0.00(  0.09%)
                                         0.9995 -0.0031  0.0166 -0.0212 -0.0147
  26. (1.98549) BD ( 1) C  6- H 17
               ( 61.52%)   0.7843* C  6 s( 27.39%)p 2.65( 72.58%)d 0.00(  0.03%)
                                         0.0000  0.5233 -0.0010  0.7773 -0.0084
                                         0.2954  0.0193 -0.1838  0.0092  0.0047
                                        -0.0087 -0.0007  0.0123 -0.0072
               ( 38.48%)   0.6203* H 17 s( 99.90%)p 0.00(  0.10%)
                                         0.9995 -0.0026 -0.0289 -0.0112  0.0067
  27. (1.98593) BD ( 1) C  7- H 18
               ( 61.21%)   0.7824* C  7 s( 27.22%)p 2.67( 72.75%)d 0.00(  0.03%)
                                         0.0000  0.5217 -0.0044 -0.5626  0.0176
                                        -0.2015 -0.0178  0.6080  0.0101  0.0013
                                        -0.0155 -0.0026  0.0091  0.0017
               ( 38.79%)   0.6228* H 18 s( 99.90%)p 0.00(  0.10%)
                                         0.9995 -0.0031  0.0197  0.0078 -0.0227
  28. (1.98503) BD ( 1) C  7- H 19
               ( 61.60%)   0.7849* C  7 s( 27.45%)p 2.64( 72.52%)d 0.00(  0.03%)
                                         0.0000  0.5239  0.0006  0.6878 -0.0111
                                        -0.5013 -0.0105  0.0203  0.0157 -0.0128
                                        -0.0041  0.0008  0.0079 -0.0083
               ( 38.40%)   0.6197* H 19 s( 99.90%)p 0.00(  0.10%)
                                         0.9995 -0.0027 -0.0250  0.0189 -0.0009
 ---------------- non-Lewis ----------------------------------------------------
  29. (0.02738) BD*( 1) C  1- C  2
               ( 49.57%)   0.7040* C  1 s( 30.50%)p 2.28( 69.46%)d 0.00(  0.03%)
                                         0.0000  0.5523  0.0009  0.8290 -0.0006
                                        -0.0478 -0.0137  0.0693 -0.0074 -0.0014
                                         0.0020 -0.0005  0.0158 -0.0089
               ( 50.43%)  -0.7102* C  2 s( 28.83%)p 2.47( 71.12%)d 0.00(  0.04%)
                                         0.0000  0.5369  0.0051 -0.8373  0.0002
                                         0.0399 -0.0199 -0.0906  0.0043 -0.0029
                                         0.0045 -0.0007  0.0168 -0.0104
  30. (0.00709) BD*( 1) C  1- H  8
               ( 38.29%)   0.6188* C  1 s( 23.39%)p 3.27( 76.58%)d 0.00(  0.04%)
                                         0.0000 -0.4836 -0.0037  0.3382  0.0086
                                         0.7423 -0.0094  0.3166 -0.0029 -0.0098
                                        -0.0037 -0.0104  0.0101  0.0056
               ( 61.71%)  -0.7855* H  8 s( 99.90%)p 0.00(  0.10%)
                                        -0.9995  0.0017 -0.0112 -0.0265 -0.0114
  31. (0.01133) BD*( 1) C  1- H  9
               ( 39.25%)   0.6265* C  1 s( 22.80%)p 3.38( 77.16%)d 0.00(  0.04%)
                                         0.0000 -0.4775  0.0036  0.2353  0.0194
                                        -0.6495  0.0041  0.5422 -0.0016  0.0060
                                        -0.0042  0.0163  0.0088 -0.0012
               ( 60.75%)  -0.7794* H  9 s( 99.91%)p 0.00(  0.09%)
                                        -0.9995  0.0030 -0.0102  0.0221 -0.0181
  32. (0.00875) BD*( 1) C  1- H 10
               ( 38.64%)   0.6216* C  1 s( 23.26%)p 3.30( 76.70%)d 0.00(  0.04%)
                                         0.0000 -0.4823  0.0001  0.3771  0.0156
                                        -0.1554  0.0039 -0.7748  0.0047  0.0027
                                         0.0111 -0.0058 -0.0019 -0.0142
               ( 61.36%)  -0.7834* H 10 s( 99.90%)p 0.00(  0.10%)
                                        -0.9995  0.0017 -0.0146  0.0052  0.0271
  33. (0.03549) BD*( 1) C  2- O  3
               ( 67.63%)   0.8224* C  2 s( 19.36%)p 4.15( 80.43%)d 0.01(  0.21%)
                                         0.0000  0.4394  0.0234  0.3581  0.0209
                                        -0.2082 -0.0316 -0.7941 -0.0249 -0.0068
                                        -0.0275  0.0156  0.0048  0.0319
               ( 32.37%)  -0.5689* O  3 s( 33.52%)p 1.98( 66.40%)d 0.00(  0.08%)
                                         0.0000  0.5790  0.0045 -0.3392  0.0021
                                         0.2291 -0.0083  0.7045  0.0045 -0.0144
                                        -0.0169  0.0133 -0.0015  0.0092
  34. (0.04041) BD*( 1) C  2- C  4
               ( 51.10%)   0.7148* C  2 s( 29.19%)p 2.42( 70.77%)d 0.00(  0.04%)
                                         0.0000  0.5402 -0.0068  0.3514 -0.0078
                                         0.7153 -0.0069  0.2691  0.0033  0.0112
                                         0.0044  0.0088 -0.0107 -0.0077
               ( 48.90%)  -0.6993* C  4 s( 28.19%)p 2.55( 71.77%)d 0.00(  0.04%)
                                         0.0000  0.5310  0.0039 -0.3412 -0.0024
                                        -0.7186  0.0020 -0.2914 -0.0006  0.0104
                                         0.0042  0.0098 -0.0095 -0.0062
  35. (0.03180) BD*( 1) C  2- H 11
               ( 38.86%)   0.6234* C  2 s( 22.56%)p 3.43( 77.40%)d 0.00(  0.04%)
                                         0.0000 -0.4749  0.0099 -0.2149  0.0005
                                         0.6650  0.0017 -0.5340  0.0214  0.0055
                                        -0.0060  0.0158  0.0083  0.0003
               ( 61.14%)  -0.7819* H 11 s( 99.88%)p 0.00(  0.12%)
                                        -0.9994  0.0073  0.0085 -0.0264  0.0218
  36. (0.01186) BD*( 1) O  3- H 12
               ( 27.31%)   0.5226* O  3 s( 19.62%)p 4.09( 80.27%)d 0.01(  0.12%)
                                         0.0000 -0.4426 -0.0166  0.1980 -0.0032
                                        -0.5840 -0.0132  0.6484  0.0412  0.0176
                                        -0.0100  0.0231  0.0143  0.0037
               ( 72.69%)  -0.8526* H 12 s( 99.68%)p 0.00(  0.32%)
                                        -0.9984  0.0061 -0.0098  0.0336 -0.0443
  37. (0.02506) BD*( 1) C  4- C  5
               ( 49.84%)   0.7060* C  4 s( 29.31%)p 2.41( 70.66%)d 0.00(  0.03%)
                                         0.0000 -0.5413 -0.0080 -0.8288  0.0002
                                         0.0470 -0.0140 -0.1316  0.0038  0.0030
                                        -0.0046 -0.0005 -0.0152  0.0084
               ( 50.16%)  -0.7082* C  5 s( 31.15%)p 2.21( 68.82%)d 0.00(  0.03%)
                                         0.0000 -0.5582  0.0029  0.8152 -0.0083
                                        -0.0570 -0.0081  0.1401  0.0240  0.0034
                                        -0.0004 -0.0014 -0.0159  0.0061
  38. (0.01719) BD*( 1) C  4- H 13
               ( 38.40%)   0.6197* C  4 s( 21.45%)p 3.66( 78.51%)d 0.00(  0.04%)
                                         0.0000 -0.4631  0.0047  0.4087  0.0061
                                        -0.2316 -0.0129 -0.7511  0.0090  0.0031
                                         0.0133 -0.0063 -0.0029 -0.0116
               ( 61.60%)  -0.7848* H 13 s( 99.89%)p 0.00(  0.11%)
                                        -0.9995  0.0039 -0.0152  0.0094  0.0271
  39. (0.02206) BD*( 1) C  4- H 14
               ( 38.66%)   0.6217* C  4 s( 21.02%)p 3.76( 78.94%)d 0.00(  0.04%)
                                         0.0000 -0.4585  0.0034  0.1707  0.0016
                                        -0.6536 -0.0094  0.5769 -0.0160  0.0049
                                        -0.0045  0.0159  0.0083 -0.0037
               ( 61.34%)  -0.7832* H 14 s( 99.90%)p 0.00(  0.10%)
                                        -0.9995  0.0060 -0.0051  0.0251 -0.0193
  40. (0.03268) BD*( 1) C  5- C  6
               ( 49.61%)   0.7043* C  5 s( 21.74%)p 3.60( 78.20%)d 0.00(  0.06%)
                                         0.0000 -0.4661 -0.0099 -0.3239 -0.0112
                                        -0.7699  0.0034 -0.2892  0.0232 -0.0111
                                        -0.0128 -0.0179  0.0057 -0.0024
               ( 50.39%)  -0.7099* C  6 s( 23.41%)p 3.27( 76.52%)d 0.00(  0.07%)
                                         0.0000 -0.4838 -0.0001  0.4033 -0.0129
                                         0.2526 -0.0140  0.7337  0.0004 -0.0131
                                        -0.0124 -0.0186  0.0053 -0.0014
  41. (0.03580) BD*( 1) C  5- C  7
               ( 49.79%)   0.7056* C  5 s( 21.41%)p 3.67( 78.52%)d 0.00(  0.06%)
                                         0.0000 -0.4628 -0.0019 -0.1660 -0.0168
                                         0.5906  0.0091 -0.6391  0.0108  0.0033
                                        -0.0125  0.0137  0.0002 -0.0170
               ( 50.21%)  -0.7086* C  7 s( 23.36%)p 3.28( 76.58%)d 0.00(  0.07%)
                                         0.0000 -0.4833  0.0033  0.3819 -0.0116
                                         0.0507  0.0123  0.7855 -0.0073  0.0054
                                        -0.0130  0.0145  0.0002 -0.0167
  42. (0.02543) BD*( 1) C  5- H 15
               ( 37.42%)   0.6117* C  5 s( 25.59%)p 2.91( 74.38%)d 0.00(  0.02%)
                                         0.0000 -0.5058  0.0109 -0.4500  0.0073
                                         0.2329 -0.0036  0.6978 -0.0005  0.0047
                                         0.0118 -0.0054 -0.0063 -0.0041
               ( 62.58%)  -0.7911* H 15 s( 99.89%)p 0.00(  0.11%)
                                        -0.9994  0.0067  0.0171 -0.0103 -0.0271
  43. (0.02731) BD*( 1) C  6- C  7
               ( 50.01%)   0.7072* C  6 s( 21.83%)p 3.58( 78.10%)d 0.00(  0.07%)
                                         0.0000  0.4673  0.0039  0.0785  0.0119
                                        -0.7160  0.0085  0.5118  0.0088  0.0048
                                        -0.0015 -0.0101 -0.0208 -0.0107
               ( 49.99%)  -0.7071* C  7 s( 21.83%)p 3.58( 78.11%)d 0.00(  0.07%)
                                         0.0000  0.4672  0.0032  0.2526  0.0100
                                         0.8394 -0.0047  0.1107  0.0142  0.0044
                                        -0.0015 -0.0109 -0.0205 -0.0103
  44. (0.01505) BD*( 1) C  6- H 16
               ( 38.71%)   0.6222* C  6 s( 27.22%)p 2.67( 72.75%)d 0.00(  0.03%)
                                         0.0000 -0.5217  0.0054  0.4755 -0.0222
                                        -0.5792 -0.0167 -0.4064 -0.0001  0.0112
                                         0.0106 -0.0084 -0.0030  0.0038
               ( 61.29%)  -0.7829* H 16 s( 99.91%)p 0.00(  0.09%)
                                        -0.9995  0.0031 -0.0166  0.0212  0.0147
  45. (0.01395) BD*( 1) C  6- H 17
               ( 38.48%)   0.6203* C  6 s( 27.39%)p 2.65( 72.58%)d 0.00(  0.03%)
                                         0.0000 -0.5233  0.0010 -0.7773  0.0084
                                        -0.2954 -0.0193  0.1838 -0.0092 -0.0047
                                         0.0087  0.0007 -0.0123  0.0072
               ( 61.52%)  -0.7843* H 17 s( 99.90%)p 0.00(  0.10%)
                                        -0.9995  0.0026  0.0289  0.0112 -0.0067
  46. (0.01522) BD*( 1) C  7- H 18
               ( 38.79%)   0.6228* C  7 s( 27.22%)p 2.67( 72.75%)d 0.00(  0.03%)
                                         0.0000 -0.5217  0.0044  0.5626 -0.0176
                                         0.2015  0.0178 -0.6080 -0.0101 -0.0013
                                         0.0155  0.0026 -0.0091 -0.0017
               ( 61.21%)  -0.7824* H 18 s( 99.90%)p 0.00(  0.10%)
                                        -0.9995  0.0031 -0.0197 -0.0078  0.0227
  47. (0.01374) BD*( 1) C  7- H 19
               ( 38.40%)   0.6197* C  7 s( 27.45%)p 2.64( 72.52%)d 0.00(  0.03%)
                                         0.0000 -0.5239 -0.0006 -0.6878  0.0111
                                         0.5013  0.0105 -0.0203 -0.0157  0.0128
                                         0.0041 -0.0008 -0.0079  0.0083
               ( 61.60%)  -0.7849* H 19 s( 99.90%)p 0.00(  0.10%)
                                        -0.9995  0.0027  0.0250 -0.0189  0.0009
  48. (0.00295) RY ( 1) C  1            s(  3.82%)p23.71( 90.50%)d 1.49(  5.68%)
                                         0.0000  0.0112  0.1950  0.0102  0.1752
                                         0.0149  0.7984  0.0068  0.4863  0.2193
                                         0.0510  0.0746  0.0070 -0.0223
  49. (0.00225) RY ( 2) C  1            s(  4.11%)p21.93( 90.22%)d 1.38(  5.66%)
                                         0.0000  0.0060  0.2027 -0.0052  0.3438
                                         0.0091  0.3268 -0.0058 -0.8228  0.1815
                                        -0.1297  0.0702  0.0359 -0.0256
  50. (0.00045) RY ( 3) C  1            s( 41.85%)p 1.02( 42.58%)d 0.37( 15.57%)
                                         0.0000  0.0099  0.6468 -0.0107  0.5432
                                         0.0000 -0.2930 -0.0034  0.2116 -0.3576
                                        -0.1509 -0.0614  0.0357 -0.0068
  51. (0.00020) RY ( 4) C  1            s( 18.70%)p 0.66( 12.27%)d 3.69( 69.03%)
                                         0.0000 -0.0066  0.4324  0.0006 -0.3024
                                        -0.0034  0.0653  0.0130 -0.1638 -0.1163
                                         0.7687 -0.2559 -0.0991 -0.1030
  52. (0.00016) RY ( 5) C  1            s( 18.70%)p 2.47( 46.16%)d 1.88( 35.15%)
                                         0.0000 -0.0135  0.4322  0.0150 -0.6565
                                        -0.0046  0.1614 -0.0069 -0.0647 -0.1901
                                        -0.5299  0.0766 -0.1130  0.1262
  53. (0.00002) RY ( 6) C  1            s(  5.32%)p 1.69(  8.98%)d16.10( 85.70%)
  54. (0.00002) RY ( 7) C  1            s(  1.44%)p 1.18(  1.70%)d67.19( 96.86%)
  55. (0.00001) RY ( 8) C  1            s(  6.04%)p 1.16(  6.97%)d14.41( 86.99%)
  56. (0.00000) RY ( 9) C  1            s(  0.07%)p 9.89(  0.71%)d99.99( 99.22%)
  57. (0.00681) RY ( 1) C  2            s(  4.81%)p19.18( 92.28%)d 0.60(  2.91%)
                                         0.0000 -0.0270  0.2177 -0.0064  0.6922
                                         0.0153 -0.5989  0.0382 -0.2885  0.1039
                                         0.0165 -0.0258  0.0831  0.1021
  58. (0.00382) RY ( 2) C  2            s(  9.56%)p 8.06( 77.08%)d 1.40( 13.36%)
                                         0.0000  0.0181  0.3087  0.0044  0.5321
                                        -0.0116  0.4634  0.0028  0.5222  0.0024
                                         0.1927  0.3084 -0.0357  0.0080
  59. (0.00228) RY ( 3) C  2            s( 12.17%)p 3.66( 44.58%)d 3.55( 43.24%)
                                         0.0000 -0.0062  0.3488  0.0131 -0.2491
                                        -0.0119 -0.3843  0.0266  0.4848 -0.0091
                                        -0.4779  0.1839  0.3904 -0.1334
  60. (0.00153) RY ( 4) C  2            s(  0.78%)p21.30( 16.69%)d99.99( 82.53%)
                                         0.0000 -0.0103  0.0879 -0.0144 -0.2770
                                        -0.0080 -0.2994  0.0154 -0.0046  0.0145
                                         0.2184  0.6491 -0.4492  0.3928
  61. (0.00105) RY ( 5) C  2            s(  0.94%)p19.06( 17.93%)d86.21( 81.12%)
                                         0.0000  0.0050  0.0969  0.0094 -0.1793
                                        -0.0100 -0.1571 -0.0160  0.3494  0.6033
                                         0.4492 -0.4287  0.0594  0.2413
  62. (0.00083) RY ( 6) C  2            s( 24.72%)p 0.66( 16.21%)d 2.39( 59.07%)
                                         0.0000 -0.0019  0.4972  0.0079 -0.1884
                                        -0.0076  0.0618 -0.0123 -0.3501  0.2458
                                         0.2859  0.1622 -0.0113 -0.6497
  63. (0.00029) RY ( 7) C  2            s(  2.77%)p 0.92(  2.55%)d34.15( 94.68%)
                                         0.0000 -0.0022  0.1665  0.0142 -0.1321
                                         0.0092 -0.0851  0.0020 -0.0225 -0.6377
                                         0.5539 -0.0648  0.4551  0.1482
  64. (0.00019) RY ( 8) C  2            s( 41.81%)p 0.40( 16.87%)d 0.99( 41.32%)
                                         0.0000 -0.0007  0.6466 -0.0163 -0.1144
                                         0.0176  0.2908  0.0245 -0.2642 -0.0521
                                        -0.3067 -0.2733 -0.1221  0.4763
  65. (0.00008) RY ( 9) C  2            s(  2.48%)p 6.48( 16.08%)d32.83( 81.44%)
  66. (0.00192) RY ( 1) O  3            s(  0.05%)p99.99( 94.11%)d99.99(  5.84%)
                                         0.0000  0.0021  0.0224  0.0120  0.7811
                                         0.0095  0.5013  0.0024  0.2820  0.0076
                                         0.1426  0.1340 -0.1194  0.0763
  67. (0.00084) RY ( 2) O  3            s(  4.50%)p16.29( 73.33%)d 4.92( 22.16%)
                                         0.0000 -0.0013  0.2122  0.0020  0.4594
                                        -0.0015 -0.7227 -0.0021  0.0050  0.1335
                                         0.0822 -0.3201 -0.0343  0.3056
  68. (0.00044) RY ( 3) O  3            s( 90.33%)p 0.11(  9.53%)d 0.00(  0.14%)
                                         0.0000 -0.0025  0.9504  0.0059 -0.1960
                                        -0.0108  0.1765  0.0038  0.1599  0.0064
                                        -0.0125 -0.0205 -0.0049  0.0278
  69. (0.00005) RY ( 4) O  3            s(  1.42%)p63.76( 90.69%)d 5.54(  7.89%)
  70. (0.00003) RY ( 5) O  3            s(  1.23%)p 5.23(  6.42%)d75.15( 92.35%)
  71. (0.00001) RY ( 6) O  3            s(  1.10%)p 8.35(  9.19%)d81.48( 89.70%)
  72. (0.00001) RY ( 7) O  3            s(  0.08%)p17.46(  1.46%)d99.99( 98.46%)
  73. (0.00000) RY ( 8) O  3            s(  1.25%)p 8.76( 10.94%)d70.25( 87.81%)
  74. (0.00000) RY ( 9) O  3            s(  0.05%)p96.09(  4.59%)d99.99( 95.36%)
  75. (0.00642) RY ( 1) C  4            s(  0.74%)p99.99( 97.04%)d 3.03(  2.23%)
                                         0.0000 -0.0001  0.0858  0.0016  0.0379
                                        -0.0090 -0.0361  0.0196  0.9834 -0.0231
                                         0.0897 -0.0810 -0.0843 -0.0058
  76. (0.00336) RY ( 2) C  4            s( 32.18%)p 1.90( 61.28%)d 0.20(  6.54%)
                                         0.0000 -0.0074  0.5672 -0.0052 -0.7768
                                         0.0050  0.0963 -0.0031  0.0005  0.1457
                                         0.0748  0.0429  0.1906 -0.0204
  77. (0.00209) RY ( 3) C  4            s( 15.14%)p 4.61( 69.85%)d 0.99( 15.01%)
                                         0.0000 -0.0124  0.3889 -0.0067  0.4558
                                         0.0045  0.7004 -0.0019 -0.0077  0.3626
                                         0.0298  0.1250  0.0250 -0.0388
[...]
                  --------  --------  --------  --------  --------  --------
  0 C                -0.2       1.3      -0.1      -0.2      -0.0      -1.2
  1 C                -2.2      -8.2      -1.7      -3.8      -1.0      -6.1
  2 O                 0.2      -0.1      -0.2      -0.0      -0.1      -0.0
  3 C               113.5     122.9     109.5     117.5     107.5     -22.3
  4 C                -0.9     -10.1      -5.2      -3.1      -0.8     184.1
  5 C                 0.1       0.0       1.2      -0.3      -0.0     -32.7
  6 C                -0.1       0.2      -0.0      -0.0      -0.0     -10.4
 10 H                -0.1      -0.2      -0.1       0.2      -0.0       0.3
 12 H                -7.7      -3.1      -2.3      -0.5      -2.6      -0.5
 13 H                -2.5      -2.5      -0.7      -9.4      -3.0       0.4
 14 H                -0.0      -0.1      -0.3      -0.1      -0.0     -11.3
 18 H                 0.0      -0.0       0.0      -0.0      -0.0      -0.2

                     84        85        86        87        88        89   
                   0.00000   0.00000   0.00000   0.00000   0.00000   0.00000
                   0.00408   0.00261   0.00110   0.00030   0.00025   0.00013
                  --------  --------  --------  --------  --------  --------
  0 C                -0.3      -0.4      -0.5       0.1      -0.1      -0.0
  1 C                -3.2      -3.0       0.6      -0.4       0.2       0.0
  2 O                -0.1      -0.2      -0.0      -0.0      -0.0       0.0
  3 C                -6.8     -21.4     -58.6      -5.8      -3.2      -1.2
  4 C               200.6     159.2     180.2     111.6     105.5     105.6
  5 C               -16.6      -9.6     -17.4      -3.5      -0.1      -0.2
  6 C               -53.4     -15.1      -5.1      -0.4      -1.2      -1.5
 10 H                 0.1      -0.2      -0.0      -0.0      -0.1      -0.0
 12 H                 0.1       0.9       0.7      -0.1      -0.1       0.0
 13 H                -0.0      -0.3      -0.5       0.2       0.0       0.0
 14 H               -21.6     -10.6      -0.1      -1.6      -0.7      -2.6
 15 H                 0.0      -0.3       0.7       0.1       0.1      -0.2
 16 H                 0.2       0.7      -0.1      -0.1      -0.2       0.0
 17 H                 0.1       0.6      -0.2      -0.0       0.1      -0.2
 18 H                 1.0      -0.2       0.2       0.0      -0.3       0.1

                     90        91        92        93        94        95   
                   0.00000   0.00000   0.00000   0.00000   0.00000   0.00000
                   0.00009   0.00005   0.00455   0.00345   0.00057   0.00025
                  --------  --------  --------  --------  --------  --------
  0 C                -0.4      -0.0      -0.1       0.0      -0.1      -0.0
  1 C                 0.3      -0.1      -0.7      -0.1      -0.6      -0.1
  2 O                -0.2       0.0      -0.0      -0.0      -0.0      -0.0
  3 C               -27.3      -1.7       0.5      -2.1       1.2      -0.1
  4 C               161.4     123.6     -31.3      -7.2     -36.5      -5.1
  5 C               -20.3      -5.8     170.7     147.0     145.0     157.7
  6 C               -12.7      -3.3     -31.3     -10.5      -0.1     -14.3
 12 H                 0.8      -0.0      -0.6      -0.1      -0.1       0.0
 14 H                -2.1     -13.0      -0.3       0.3       0.3      -0.1
 15 H                 0.6      -0.0      -1.9     -18.1      -2.4     -22.0
 16 H                -0.1       0.2      -5.1      -9.6      -6.6     -16.4
 17 H                 0.3       0.0       0.3      -0.1      -0.1       0.1
 18 H                -0.0       0.1      -0.2       0.6      -0.1       0.2

                     96        97        98        99       100       101   
                   0.00000   0.00000   0.00000   0.00000   0.00000   0.00000
                   0.00017   0.00006   0.00002   0.00001   0.00001   0.00436
                  --------  --------  --------  --------  --------  --------
  1 C                 0.0      -0.3      -0.0      -0.0       0.0       0.5
  3 C                 0.1       0.5       0.0      -0.0       0.0      -2.5
  4 C                -0.3     -18.2      -2.4      -3.8      -0.5     -34.0
  5 C               105.9     135.9     115.5     129.1     112.4     -29.4
  6 C                -1.3     -11.4      -4.9      -7.7      -8.7     175.1
 10 H                -0.0      -0.0      -0.0      -0.0      -0.0      -0.1
 12 H                 0.0      -0.1       0.0      -0.1      -0.0      -0.7
 13 H                -0.0      -0.0      -0.0      -0.0      -0.0      -0.2
 14 H                -0.2      -0.3       0.0       0.2       0.0      -0.3
 15 H                -2.8      -2.3      -2.8      -5.5      -2.1       0.4
 16 H                -1.3      -3.8      -5.5     -12.3      -1.0      -0.2
 17 H                 0.1      -0.2       0.1       0.0       0.1      -2.8
 18 H                -0.2       0.2      -0.0       0.1      -0.1      -5.7

                    102       103       104       105       106       107   
                   0.00000   0.00000   0.00000   0.00000   0.00000   0.00000
                   0.00321   0.00090   0.00027   0.00018   0.00005   0.00002
                  --------  --------  --------  --------  --------  --------
  1 C                 0.1       0.4      -0.1      -0.0      -0.0       0.0
  3 C                -2.1       0.3      -0.1      -0.0      -0.0       0.0
  4 C                -6.3     -35.6      -2.8      -0.3     -15.1      -1.7
  5 C               -12.0      -0.3     -15.1      -1.3     -11.3      -6.4
  6 C               145.6     149.4     153.3     106.1     132.9     114.5
 10 H                -0.3      -1.0      -0.0       0.0      -0.0      -0.1
 12 H                 0.1      -0.1      -0.0       0.0      -0.1       0.0
 14 H                 0.2       0.3      -0.1      -0.2      -0.2       0.0
 15 H                -0.2      -0.1       0.2       0.1      -0.2       0.1
 16 H                 0.7      -0.1       0.2      -0.2       0.2      -0.0
 17 H               -19.4      -2.5     -19.3      -2.5      -2.1      -2.9
 18 H                -6.4     -10.8     -16.0      -1.5      -3.9      -3.6

                    108       109       110       111       112       113   
                   0.00000   0.00000   0.00000   0.00000   0.00000   0.00000
                   0.00001   0.00001   0.00289   0.00014   0.00012   0.00004
                  --------  --------  --------  --------  --------  --------
  0 C                -0.0      -0.0     -35.3      -2.9      -2.9      -8.2
  1 C                -0.0      -0.0       0.4      -0.2      -0.2      -0.2
  2 O                 0.0      -0.0      -0.1      -0.1      -0.1      -0.0
  3 C                 0.1      -0.1      -0.5      -0.0      -0.1      -0.0
  4 C                -3.4      -1.1      -0.1      -0.0      -0.0      -0.0
  5 C                -9.4      -5.4       0.0      -0.0      -0.0      -0.0
  6 C               128.0     113.2      -0.0      -0.0      -0.0      -0.0
  7 H                -0.0      -0.0     136.4     104.0     104.2     108.6
  8 H                -0.0      -0.0      -0.3      -0.3      -0.4      -0.1
  9 H                -0.0      -0.0      -0.3      -0.4      -0.4      -0.1
 10 H                 0.0      -0.0      -0.3      -0.0      -0.1      -0.0
 14 H                 0.2       0.1      -0.0      -0.0      -0.0      -0.0
 16 H                 0.1      -0.0      -0.0      -0.0      -0.0      -0.0
 17 H                -3.8      -4.3      -0.0      -0.0      -0.0      -0.0
 18 H               -11.8      -2.3      -0.0      -0.0      -0.0      -0.0

                    114       115       116       117       118       119   
                   0.00000   0.00000   0.00000   0.00000   0.00000   0.00000
                   0.00291   0.00018   0.00014   0.00004   0.00190   0.00017
                  --------  --------  --------  --------  --------  --------
  0 C               -33.3      -2.9      -2.8      -8.0     -34.2      -2.9
  1 C                 0.7      -0.1      -0.2      -0.1       0.4      -0.1
  2 O                -0.0      -0.1      -0.2      -0.0      -0.0      -0.0
  3 C                -0.2      -0.0      -0.0      -0.0       0.1      -0.1
  7 H                -0.3      -0.3      -0.4      -0.1      -0.3      -0.3
  8 H               135.8     103.9     104.2     108.4      -0.2      -0.5
  9 H                -0.3      -0.4      -0.4      -0.1     136.7     104.0
 10 H                -0.0      -0.1      -0.0      -0.0      -0.4      -0.0
 11 H                -0.7      -0.0      -0.0      -0.0      -0.0      -0.0
 12 H                -0.0      -0.0      -0.0       0.0      -2.0      -0.0
 13 H                -1.4      -0.0      -0.0      -0.1      -0.0      -0.0

                    120       121       122       123       124       125   
                   0.00000   0.00000   0.00000   0.00000   0.00000   0.00000
                   0.00013   0.00003   0.00356   0.00010   0.00007   0.00004
                  --------  --------  --------  --------  --------  --------
  0 C                -3.6      -7.8       0.4      -0.6      -0.1       0.1
  1 C                -0.0      -0.1     -39.4      -5.7      -3.6      -5.2
  2 O                -0.1      -0.1       0.3      -0.2      -0.5      -1.4
  3 C                 0.0      -0.0       1.6      -0.2      -0.3       0.0
  4 C                -0.0      -0.0      -0.2       0.0      -0.1      -0.1
  6 C                -0.0      -0.0      -1.3      -0.0      -0.0       0.0
  7 H                -0.4      -0.1      -0.3       0.0      -0.1      -0.0
  8 H                -0.4      -0.1      -0.0      -0.0      -0.0      -0.0
  9 H               104.6     108.5      -0.3      -0.0      -0.0      -0.0
 10 H                -0.0      -0.0     140.3     106.9     104.9     106.8
 12 H                -0.0      -0.1      -0.1       0.0      -0.0      -0.0
 17 H                -0.0      -0.0      -0.7      -0.0      -0.0       0.0

                    126       127       128       129       130       131   
                   0.00000   0.00000   0.00000   0.00000   0.00000   0.00000
                   0.00229   0.00158   0.00091   0.00002   0.00291   0.00014
                  --------  --------  --------  --------  --------  --------
  0 C                -0.3      -0.1       0.0      -0.0      -0.3      -0.0
  1 C                -3.3      -0.1      -1.3       0.1       0.9       0.0
  2 O                -4.9      -3.2      -2.4      -3.4      -0.0      -0.0
  3 C                -0.2      -0.0       0.1      -0.1     -36.5      -3.5
  4 C                -0.0      -0.0      -0.0      -0.0       2.5      -0.1
  5 C                -0.0      -0.0      -0.0      -0.0      -1.0      -0.1
  6 C                -0.0      -0.0      -0.0      -0.0      -1.0      -0.0
  8 H                -0.6      -0.0      -0.1      -0.0      -0.0      -0.0
  9 H                -0.0      -0.0      -0.0       0.0      -2.0       0.0
 10 H                -0.0      -0.0      -0.0      -0.0      -0.1      -0.1
 11 H               110.6     103.5     103.8     103.5      -0.0      -0.0
 12 H                -0.0      -0.0      -0.0       0.0     140.6     104.4
 13 H                -0.7      -0.0      -0.1      -0.0      -0.4      -0.5
 14 H                -0.4      -0.0      -0.0      -0.0       0.1      -0.0
 15 H                -0.0      -0.0      -0.0      -0.0      -1.3       0.0
 17 H                 0.0      -0.0      -0.0      -0.0      -1.4      -0.0

                    132       133       134       135       136       137   
                   0.00000   0.00000   0.00000   0.00000   0.00000   0.00000
                   0.00009   0.00004   0.00438   0.00015   0.00009   0.00004
                  --------  --------  --------  --------  --------  --------
  0 C                -0.1      -0.0       0.0      -0.0      -0.2      -0.0
  1 C                -0.2      -0.2       0.5      -0.0      -0.3       0.0
  2 O                -0.1      -0.1      -0.0      -0.1      -0.1      -0.0
  3 C                -3.0      -7.7     -31.5      -3.5      -3.2      -8.3
  4 C                -0.3      -0.1      -0.4      -0.1      -0.1      -0.1
  6 C                -0.0      -0.0      -0.1      -0.0      -0.1      -0.0
  8 H                -0.0      -0.0      -1.4      -0.0      -0.0      -0.0
 11 H                -0.0      -0.0      -0.8      -0.0      -0.0      -0.0
 12 H               104.6     108.4      -0.4      -0.6      -0.6      -0.1
 13 H                -0.6      -0.1     134.2     104.5     104.9     108.6
 14 H                -0.0      -0.0      -0.2      -0.0      -0.0      -0.0

                    138       139       140       141       142       143   
                   0.00000   0.00000   0.00000   0.00000   0.00000   0.00000
                   0.00461   0.00015   0.00008   0.00005   0.00182   0.00020
                  --------  --------  --------  --------  --------  --------
  1 C                -0.2      -0.1      -0.1      -0.0      -0.0      -0.0
  2 O                -0.7      -0.1      -0.0      -0.1      -0.0      -0.0
  3 C                -0.4      -0.1      -0.7       0.2      -1.3      -0.0
  4 C               -39.0      -3.1      -5.9      -7.3       1.4      -0.1
  5 C                -0.1      -0.2       0.2      -0.4     -40.1      -2.8
  6 C                -0.1      -0.3       0.2      -0.3       0.3      -0.2
 11 H                -0.4      -0.0      -0.0      -0.0      -0.0      -0.0
 12 H                 0.1      -0.0      -0.0       0.0      -1.3      -0.0
 13 H                -0.2      -0.0       0.0      -0.0      -0.1      -0.0
 14 H               142.5     104.3     106.5     107.9       0.0      -0.0
 15 H                 0.0      -0.0      -0.0      -0.0     142.3     103.4
 16 H                -0.8      -0.0      -0.0      -0.0      -0.7      -0.2
 17 H                 0.0      -0.0      -0.0      -0.0      -0.4      -0.0
 18 H                -0.8      -0.0      -0.0      -0.0       0.0      -0.0

                    144       145       146       147       148       149   
                   0.00000   0.00000   0.00000   0.00000   0.00000   0.00000
                   0.00011   0.00001   0.00171   0.00018   0.00011   0.00002
                  --------  --------  --------  --------  --------  --------
  4 C                -0.0      -0.3       0.4      -0.2       0.0      -0.3
  5 C                -4.7      -6.5     -40.1      -2.8      -5.2      -6.8
  6 C                -0.1      -0.2       0.5      -0.2      -0.0      -0.2
 14 H                -0.0      -0.0      -0.8      -0.0      -0.0      -0.0
 15 H               105.7     107.2      -0.8      -0.2      -0.7      -0.1
 16 H                -0.7      -0.1     141.6     103.5     106.0     107.4
 18 H                -0.0      -0.0      -0.7      -0.0      -0.0      -0.0

                    150       151       152       153       154       155   
                   0.00000   0.00000   0.00000   0.00000   0.00000   0.00000
                   0.00185   0.00020   0.00011   0.00002   0.00169   0.00018
                  --------  --------  --------  --------  --------  --------
  3 C                -1.1      -0.0      -0.1      -0.0       0.0      -0.0
  4 C                 1.2      -0.1      -0.0      -0.3       0.4      -0.2
  5 C                 0.3      -0.2      -0.1      -0.3       0.5      -0.2
  6 C               -39.6      -2.8      -4.9      -6.4     -40.7      -2.8
 10 H                -0.7      -0.0      -0.0      -0.0      -0.0      -0.0
 12 H                -1.5      -0.0      -0.0      -0.0      -0.0      -0.0
 14 H                 0.0      -0.0      -0.0      -0.0      -0.9      -0.0
 15 H                -0.4      -0.0      -0.0      -0.0       0.0      -0.0
 16 H                 0.0      -0.0      -0.0      -0.0      -0.7      -0.0
 17 H               142.4     103.4     105.9     107.1      -0.8      -0.2
 18 H                -0.7      -0.2      -0.7      -0.1     142.2     103.5

                    156       157   
                   0.00000   0.00000
                   0.00011   0.00002
                  --------  --------
  4 C                 0.0      -0.3
  5 C                -0.0      -0.2
  6 C                -5.3      -6.6
 17 H                -0.7      -0.1
 18 H               106.1     107.3

Storing NBOs: 3965.nbo
                                    *** NBOs were stored ***

                                *** returned from GENNBO program ***

-------
TIMINGS
-------

Total SCF time: 0 days 0 hours 0 min 6 sec 

Total time                  ....       6.669 sec
Sum of individual times     ....       7.251 sec  (108.7%)

Fock matrix formation       ....       4.236 sec  ( 63.5%)
  Coulomb formation         ....       2.171 sec  ( 51.2% of F)
  Split-RI-J                ....       2.163 sec  ( 51.1% of F)
  XC integration            ....       2.060 sec  ( 48.6% of F)
    Basis function eval.    ....       0.681 sec  ( 33.1% of XC)
    Density eval.           ....       0.378 sec  ( 18.3% of XC)
    XC-Functional eval.     ....       0.110 sec  (  5.4% of XC)
    XC-Potential eval.      ....       0.800 sec  ( 38.9% of XC)
Diagonalization             ....       0.034 sec  (  0.5%)
Density matrix formation    ....       0.004 sec  (  0.1%)
Population analysis         ....       1.671 sec  ( 25.0%)
Initial guess               ....       0.442 sec  (  6.6%)
Orbital Transformation      ....       0.000 sec  (  0.0%)
Orbital Orthonormalization  ....       0.000 sec  (  0.0%)
DIIS solution               ....       0.009 sec  (  0.1%)
SOSCF solution              ....       0.014 sec  (  0.2%)
Grid generation             ....       0.842 sec  ( 12.6%)
           ************************************************************
           *              Shut down parallel processing               *
           ************************************************************

-------------------------   --------------------
FINAL SINGLE POINT ENERGY      -310.414520892138
-------------------------   --------------------


                            ***************************************
                            *     ORCA property calculations      *
                            ***************************************

                                    ---------------------
                                    Active property flags
                                    ---------------------
   (+) Dipole Moment


------------------------------------------------------------------------------
                       ORCA ELECTRIC PROPERTIES CALCULATION
------------------------------------------------------------------------------

Dipole Moment Calculation                       ... on
Quadrupole Moment Calculation                   ... off
Polarizability Calculation                      ... off
GBWName                                         ... 3965.gbw
Electron density file                           ... 3965.scfp.tmp

-------------
DIPOLE MOMENT
-------------
                                X             Y             Z
Electronic contribution:      1.87309      -1.39396      -2.19045
Nuclear contribution   :     -2.20939       1.82112       2.19418
                        -----------------------------------------
Total Dipole Moment    :     -0.33630       0.42716       0.00373
                        -----------------------------------------
Magnitude (a.u.)       :      0.54367
Magnitude (Debye)      :      1.38190


Timings for individual modules:

Sum of individual times         ...        7.923 sec (=   0.132 min)
GTO integral calculation        ...        0.480 sec (=   0.008 min)   6.1 %
SCF iterations                  ...        7.442 sec (=   0.124 min)  93.9 %
                             ****ORCA TERMINATED NORMALLY****
TOTAL RUN TIME: 0 days 0 hours 0 minutes 8 seconds 321 msec
