
                                 *****************
                                 * O   R   C   A *
                                 *****************

           --- An Ab Initio, DFT and Semiempirical electronic structure package ---

                  #######################################################
                  #                        -***-                        #
                  #  Department of molecular theory and spectroscopy    #
                  #              Directorship: Frank Neese              #
                  # Max Planck Institute for Chemical Energy Conversion #
                  #                  D-45470 Muelheim/Ruhr              #
                  #                       Germany                       #
                  #                                                     #
                  #                  All rights reserved                #
                  #                        -***-                        #
                  #######################################################


                         Program Version 3.0.3 - RELEASE   -


 With contributions from (in alphabetic order):
   Ute Becker             : Parallelization
   Dmytro Bykov           : SCF Hessian
   Dmitry Ganyushin       : Spin-Orbit,Spin-Spin,Magnetic field MRCI
   Andreas Hansen         : Spin unrestricted coupled pair/coupled cluster methods
   Dimitrios Liakos       : Extrapolation schemes; parallel MDCI
   Robert Izsak           : Overlap fitted RIJCOSX, COSX-SCS-MP3
   Christian Kollmar      : KDIIS, OOCD, Brueckner-CCSD(T), CCSD density
   Simone Kossmann        : Meta GGA functionals, TD-DFT gradient, OOMP2, MP2 Hessian
   Taras Petrenko         : DFT Hessian,TD-DFT gradient, ASA and ECA modules, normal mode analysis, Resonance Raman, ABS, FL, XAS/XES, NRVS
   Christoph Reimann      : Effective Core Potentials
   Michael Roemelt        : Restricted open shell CIS
   Christoph Riplinger    : Improved optimizer, TS searches, QM/MM, DLPNO-CCSD
   Barbara Sandhoefer     : DKH picture change effects
   Igor Schapiro          : Molecular dynamics
   Kantharuban Sivalingam : CASSCF convergence, NEVPT2
   Boris Wezisla          : Elementary symmetry handling
   Frank Wennmohs         : Technical directorship


 We gratefully acknowledge several colleagues who have allowed us to
 interface, adapt or use parts of their codes:
   Stefan Grimme, W. Hujo, H. Kruse, T. Risthaus : VdW corrections, initial TS optimization,
                                                   DFT functionals, gCP
   Ed Valeev                                     : LibInt (2-el integral package), F12 methods
   Garnet Chan, S. Sharma, R. Olivares           : DMRG
   Ulf Ekstrom                                   : XCFun DFT Library
   Mihaly Kallay                                 : mrcc  (arbitrary order and MRCC methods)
   Andreas Klamt, Michael Diedenhofen            : otool_cosmo (COSMO solvation model)
   Frank Weinhold                                : gennbo (NPA and NBO analysis)
   Christopher J. Cramer and Donald G. Truhlar   : smd solvation model


 Your calculation uses the libint2 library for the computation of 2-el integrals
 For citations please refer to: http://libint.valeyev.net

 This ORCA versions uses:
   CBLAS   interface :  Fast vector & matrix operations
   LAPACKE interface :  Fast linear algebra routines
   SCALAPACK package :  Parallel linear algebra routines


Your calculation utilizes the basis: Ahlrichs-VDZ
Cite in your paper:
H - Kr: A. Schaefer, H. Horn and R. Ahlrichs, J. Chem. Phys. 97, 2571 (1992).

Your calculation utilizes the basis: Ahlrichs SVPalls1+f
Cite in your paper:
Rb - Xe: A. Schaefer, C. Huber and R. Ahlrichs, J. Chem. Phys. 100, 5829 (1994).

================================================================================
                                        WARNINGS
                       Please study these warnings very carefully!
================================================================================
Now building the actual basis set


INFO   : the flag for use of LIBINT has been found!

================================================================================
                                       INPUT FILE
================================================================================
NAME = 4061.inp
|  1> ! RI PBE def2-SVP def2-SVP/J NBO PAL2
|  2> % maxcore 2000
|  3> % output
|  4>     # printlevel mini
|  5>     print[ P_Basis ] 0
|  6>     print[ P_SCFInfo ] 1
|  7>     print[ P_SCFIterInfo ] 1
|  8>     print[ P_OrbEn ] 0
|  9>     print[ P_Cartesian ] 0
| 10> end
| 11> *xyz 0 1
| 12>  C        0.9026330000     0.7089810000    -1.8678200000 
| 13>  C        2.3995700000     0.6971070000    -2.0415730000 
| 14>  O        2.9385970000    -0.3340020000    -1.2357520000 
| 15>  C        4.3280310000    -0.4076330000    -1.2755480000 
| 16>  O        4.8397580000    -0.8402670000    -2.4955800000 
| 17>  C        4.5716640000    -2.2015390000    -2.7751300000 
| 18>  C        5.2228800000    -2.5594270000    -4.0862320000 
| 19>  H        0.4579530000     1.5029330000    -2.4718720000 
| 20>  H        0.6357920000     0.8782310000    -0.8227970000 
| 21>  H        0.4703540000    -0.2435630000    -2.1808660000 
| 22>  H        2.8340590000     1.6610420000    -1.7367670000 
| 23>  H        2.6697330000     0.5343660000    -3.0915410000 
| 24>  H        4.6083800000    -1.0973460000    -0.4690850000 
| 25>  H        4.7754030000     0.5797480000    -1.1034450000 
| 26>  H        3.4893500000    -2.3710050000    -2.8173740000 
| 27>  H        4.9696490000    -2.8249040000    -1.9603420000 
| 28>  H        4.8198650000    -1.9485900000    -4.8965770000 
| 29>  H        5.0409920000    -3.6096690000    -4.3247380000 
| 30>  H        6.3014270000    -2.3966750000    -4.0396400000 
| 31> *
| 32> 
| 33>                          ****END OF INPUT****
================================================================================

                       ****************************
                       * Single Point Calculation *
                       ****************************

--------------------------------
INTERNAL COORDINATES (ANGSTROEM)
--------------------------------
 C      0   0   0   0.000000     0.000     0.000
 C      1   0   0   1.507034     0.000     0.000
 O      2   1   0   1.415303   108.566     0.000
 C      3   2   1   1.391953   113.730   182.343
 O      4   3   2   1.391946   114.109   290.818
 C      5   4   3   1.415304   113.730   290.816
 C      6   5   4   1.507035   108.566   182.350
 H      1   2   3   1.092236   110.265   179.456
 H      1   2   3   1.091752   110.754    59.358
 H      1   2   3   1.091880   110.691   299.304
 H      2   1   3   1.100390   110.693   240.058
 H      2   1   3   1.096314   110.877   121.044
 H      4   3   2   1.097580   105.497   168.984
 H      4   3   2   1.097580   110.781    49.694
 H      6   5   4   1.096315   110.078    60.815
 H      6   5   4   1.100389   109.275   303.172
 H      7   6   5   1.091880   110.690   299.305
 H      7   6   5   1.092235   110.265   179.458
 H      7   6   5   1.091752   110.754    59.360

---------------------------
INTERNAL COORDINATES (A.U.)
---------------------------
 C      0   0   0   0.000000     0.000     0.000
 C      1   0   0   2.847882     0.000     0.000
 O      2   1   0   2.674536   108.566     0.000
 C      3   2   1   2.630409   113.730   182.343
 O      4   3   2   2.630397   114.109   290.818
 C      5   4   3   2.674536   113.730   290.816
 C      6   5   4   2.847883   108.566   182.350
 H      1   2   3   2.064026   110.265   179.456
 H      1   2   3   2.063113   110.754    59.358
 H      1   2   3   2.063355   110.691   299.304
 H      2   1   3   2.079436   110.693   240.058
 H      2   1   3   2.071734   110.877   121.044
 H      4   3   2   2.074126   105.497   168.984
 H      4   3   2   2.074126   110.781    49.694
 H      6   5   4   2.071735   110.078    60.815
 H      6   5   4   2.079433   109.275   303.172
 H      7   6   5   2.063354   110.690   299.305
 H      7   6   5   2.064024   110.265   179.458
 H      7   6   5   2.063112   110.754    59.360



           ************************************************************
           *        Program running with 2 parallel MPI-processes     *
           *              working on a common directory               *
           ************************************************************
------------------------------------------------------------------------------
                           ORCA GTO INTEGRAL CALCULATION
                           -- RI-GTO INTEGRALS CHOSEN --
------------------------------------------------------------------------------

                         BASIS SET STATISTICS AND STARTUP INFO

Gaussian basis set:
 # of primitive gaussian shells          ...  144
 # of primitive gaussian functions       ...  252
 # of contracted shells                  ...   78
 # of contracted basis functions         ...  158
 Highest angular momentum                ...    2
 Maximum contraction depth               ...    5
Auxiliary gaussian basis set:
 # of primitive gaussian shells          ...  264
 # of primitive gaussian functions       ...  682
 # of contracted shells                  ...  165
 # of contracted aux-basis functions     ...  475
 Highest angular momentum                ...    4
 Maximum contraction depth               ...    7
Ratio of auxiliary to basis functions    ...  3.01
Integral package used                  ... LIBINT
 One Electron integrals                  ... done
 Ordering auxiliary basis shells         ... done
 Integral threshhold             Thresh  ...  1.000e-10
 Primitive cut-off               TCut    ...  1.000e-11
 Pre-screening matrix                    ... done
 Shell pair data                         ... 
 Ordering of the shell pairs             ... done (   0.000 sec) 2844 of 3081 pairs
 Determination of significant pairs      ... done (   0.000 sec)
 Creation of shell pair data             ... done (   0.000 sec)
 Storage of shell pair data              ... done (   0.000 sec)
 Shell pair data done in (   0.001 sec)
 Computing two index integrals           ... done
 Cholesky decomposition of the V-matrix  ... done


Timings:
 Total evaluation time                   ...   0.168 sec (  0.003 min)
 One electron matrix time                ...   0.028 sec (  0.000 min) = 16.4%
 Schwartz matrix evaluation time         ...   0.073 sec (  0.001 min) = 43.3%
 Two index repulsion integral time       ...   0.004 sec (  0.000 min) =  2.6%
 Cholesky decomposition of V             ...   0.004 sec (  0.000 min) =  2.6%
 Three index repulsion integral time     ...   0.000 sec (  0.000 min) =  0.0%

           ************************************************************
           *              Shut down parallel processing               *
           ************************************************************


           ************************************************************
           *        Program running with 2 parallel MPI-processes     *
           *              working on a common directory               *
           ************************************************************
-------------------------------------------------------------------------------
                                 ORCA SCF
-------------------------------------------------------------------------------

------------
SCF SETTINGS
------------
Hamiltonian:
 Density Functional     Method          .... DFT(GTOs)
 Exchange Functional    Exchange        .... PBE
   PBE kappa parameter  XKappa          ....  0.804000
 Correlation Functional Correlation     .... PBE
 LDA part of GGA corr.  LDAOpt          .... PW91-LDA
 Gradients option       PostSCFGGA      .... off
   NL short-range parameter             ....  6.400000
 RI-approximation to the Coulomb term is turned on
   Number of auxiliary basis functions  .... 475


General Settings:
 Integral files         IntName         .... 4061
 Hartree-Fock type      HFTyp           .... RHF
 Total Charge           Charge          ....    0
 Multiplicity           Mult            ....    1
 Number of Electrons    NEL             ....   58
 Basis Dimension        Dim             ....  158
 Nuclear Repulsion      ENuc            ....    332.3877900597 Eh

Convergence Acceleration:
 DIIS                   CNVDIIS         .... on
   Start iteration      DIISMaxIt       ....    12
   Startup error        DIISStart       ....  0.200000
   # of expansion vecs  DIISMaxEq       ....     5
   Bias factor          DIISBfac        ....   1.050
   Max. coefficient     DIISMaxC        ....  10.000
 Newton-Raphson         CNVNR           .... off
 SOSCF                  CNVSOSCF        .... on
   Start iteration      SOSCFMaxIt      ....   150
   Startup grad/error   SOSCFStart      ....  0.003300
 Level Shifting         CNVShift        .... on
   Level shift para.    LevelShift      ....    0.2500
   Turn off err/grad.   ShiftErr        ....    0.0010
 Zerner damping         CNVZerner       .... off
 Static damping         CNVDamp         .... on
   Fraction old density DampFac         ....    0.7000
   Max. Damping (<1)    DampMax         ....    0.9800
   Min. Damping (>=0)   DampMin         ....    0.0000
   Turn off err/grad.   DampErr         ....    0.1000
 Fernandez-Rico         CNVRico         .... off

SCF Procedure:
 Maximum # iterations   MaxIter         ....   125
 SCF integral mode      SCFMode         .... Direct
   Integral package                     .... LIBINT
 Reset frequeny         DirectResetFreq ....    20
 Integral Threshold     Thresh          ....  1.000e-10 Eh
 Primitive CutOff       TCut            ....  1.000e-11 Eh

Convergence Tolerance:
 Convergence Check Mode ConvCheckMode   .... Total+1el-Energy
 Energy Change          TolE            ....  1.000e-06 Eh
 1-El. energy change                    ....  1.000e-03 Eh
 Orbital Gradient       TolG            ....  5.000e-05
 Orbital Rotation angle TolX            ....  5.000e-05
 DIIS Error             TolErr          ....  1.000e-06


Diagonalization of the overlap matrix:
Smallest eigenvalue                        ... 3.210e-03
Time for diagonalization                   ...    0.015 sec
Threshold for overlap eigenvalues          ... 1.000e-08
Number of eigenvalues below threshold      ... 0
Time for construction of square roots      ...    0.003 sec
Total time needed                          ...    0.018 sec

-------------------
DFT GRID GENERATION
-------------------

General Integration Accuracy     IntAcc      ...  4.340
Radial Grid Type                 RadialGrid  ... Gauss-Chebyshev
Angular Grid (max. acc.)         AngularGrid ... Lebedev-110
Angular grid pruning method      GridPruning ... 3 (G Style)
Weight generation scheme         WeightScheme... Becke
Basis function cutoff            BFCut       ...    1.0000e-10
Integration weight cutoff        WCut        ...    1.0000e-14
Grids for H and He will be reduced by one unit

# of grid points (after initial pruning)     ...  21240 (   0.0 sec)
# of grid points (after weights+screening)   ...  19643 (   0.1 sec)
nearest neighbour list constructed           ...    0.0 sec
Grid point re-assignment to atoms done       ...    0.0 sec
Grid point division into batches done        ...    0.0 sec
Reduced shell lists constructed in    0.1 sec

Total number of grid points                  ...    19643
Total number of batches                      ...      314
Average number of points per batch           ...       62
Average number of grid points per atom       ...     1034
Average number of shells per batch           ...    54.90 (70.38%)
Average number of basis functions per batch  ...   106.97 (67.71%)
Average number of large shells per batch     ...    42.38 (77.20%)
Average number of large basis fcns per batch ...    82.22 (76.85%)
Maximum spatial batch extension              ...  17.60, 19.51, 21.02 au
Average spatial batch extension              ...   1.40,  1.43,  1.48 au

Time for grid setup =    0.167 sec

------------------------------
INITIAL GUESS: MODEL POTENTIAL
------------------------------
Loading Hartree-Fock densities                     ... done
Calculating cut-offs                               ... done
Setting up the integral package                    ... done
Initializing the effective Hamiltonian             ... done
Starting the Coulomb interaction                   ... done (   0.1 sec)
Reading the grid                                   ... done
Mapping shells                                     ... done
Starting the XC term evaluation                    ... done (   0.1 sec)
  promolecular density results
     # of electrons  =     57.990875372
     EX              =    -45.435907464
     EC              =     -1.907047285
     EX+EC           =    -47.342954749
Transforming the Hamiltonian                       ... done (   0.0 sec)
Diagonalizing the Hamiltonian                      ... done (   0.0 sec)
Back transforming the eigenvectors                 ... done (   0.0 sec)
Now organizing SCF variables                       ... done
                      ------------------
                      INITIAL GUESS DONE (   0.4 sec)
                      ------------------
--------------
SCF ITERATIONS
--------------
ITER       Energy         Delta-E        Max-DP      RMS-DP      [F,P]     Damp
               ***  Starting incremental Fock matrix formation  ***
  0   -347.3103243828   0.000000000000 0.07442182  0.00230185  0.1605678 0.7000
  1   -347.3973597107  -0.087035327952 0.04213859  0.00163371  0.0765544 0.7000
                               ***Turning on DIIS***
  2   -347.4277833769  -0.030423666143 0.04803625  0.00259657  0.0216002 0.0000
  3   -347.4738105923  -0.046027215458 0.03377614  0.00111424  0.0486391 0.0000
  4   -347.4871615627  -0.013350970393 0.00867123  0.00033474  0.0088618 0.0000
  5   -347.4877882235  -0.000626660826 0.00272970  0.00014682  0.0047184 0.0000
                      *** Initiating the SOSCF procedure ***
                           *** Shutting down DIIS ***
                      *** Re-Reading the Fockian *** 
                      *** Removing any level shift *** 
ITER      Energy       Delta-E        Grad      Rot      Max-DP    RMS-DP
  6   -347.48787772  -0.0000894987  0.000282  0.000282  0.001421  0.000072
               *** Restarting incremental Fock matrix formation ***
  7   -347.48788187  -0.0000041429  0.000142  0.000254  0.001194  0.000027
  8   -347.48788001   0.0000018556  0.000233  0.000166  0.000683  0.000017
  9   -347.48788302  -0.0000030089  0.000015  0.000021  0.000062  0.000002
                 **** Energy Check signals convergence ****
              ***Rediagonalizing the Fockian in SOSCF/NRSCF***

               *****************************************************
               *                     SUCCESS                       *
               *           SCF CONVERGED AFTER  10 CYCLES          *
               *****************************************************

Setting up the final grid:

General Integration Accuracy     IntAcc      ...  4.670
Radial Grid Type                 RadialGrid  ... Gauss-Chebyshev
Angular Grid (max. acc.)         AngularGrid ... Lebedev-302
Angular grid pruning method      GridPruning ... 3 (G Style)
Weight generation scheme         WeightScheme... Becke
Basis function cutoff            BFCut       ...    1.0000e-10
Integration weight cutoff        WCut        ...    1.0000e-14
Grids for H and He will be reduced by one unit

# of grid points (after initial pruning)     ...  84212 (   0.0 sec)
# of grid points (after weights+screening)   ...  76682 (   0.1 sec)
nearest neighbour list constructed           ...    0.0 sec
Grid point re-assignment to atoms done       ...    0.0 sec
Grid point division into batches done        ...    0.2 sec
Reduced shell lists constructed in    0.5 sec

Total number of grid points                  ...    76682
Total number of batches                      ...     1209
Average number of points per batch           ...       63
Average number of grid points per atom       ...     4036
Average number of shells per batch           ...    50.34 (64.54%)
Average number of basis functions per batch  ...    97.24 (61.54%)
Average number of large shells per batch     ...    38.04 (75.56%)
Average number of large basis fcns per batch ...    73.07 (75.14%)
Maximum spatial batch extension              ...  18.57, 18.23, 20.36 au
Average spatial batch extension              ...   0.97,  1.00,  1.03 au

Final grid set up in    0.7 sec
Final integration                            ... done (   0.5 sec)
Change in XC energy                          ...    -0.000042426
Integrated number of electrons               ...    57.999853413
Previous integrated no of electrons          ...    57.999158429

----------------
TOTAL SCF ENERGY
----------------

Total Energy       :         -347.48792543 Eh           -9455.62717 eV

Components:
Nuclear Repulsion  :          332.38779006 Eh            9044.73159 eV
Electronic Energy  :         -679.87571549 Eh          -18500.35876 eV

One Electron Energy:        -1130.83525866 Eh          -30771.59179 eV
Two Electron Energy:          450.95954317 Eh           12271.23303 eV

Virial components:
Potential Energy   :         -691.87311721 Eh          -18826.82466 eV
Kinetic Energy     :          344.38519178 Eh            9371.19749 eV
Virial Ratio       :            2.00900949


DFT components:
N(Alpha)           :       28.999926706381 electrons
N(Beta)            :       28.999926706381 electrons
N(Total)           :       57.999853412762 electrons
E(X)               :      -46.429844709078 Eh       
E(C)               :       -1.918317269813 Eh       
E(XC)              :      -48.348161978891 Eh       

---------------
SCF CONVERGENCE
---------------

  Last Energy change         ...    1.7658e-08  Tolerance :   1.0000e-06
  Last MAX-Density change    ...    4.1219e-05  Tolerance :   1.0000e-05
  Last RMS-Density change    ...    1.2435e-06  Tolerance :   1.0000e-06
  Last Orbital Gradient      ...    2.6941e-05  Tolerance :   5.0000e-05
  Last Orbital Rotation      ...    1.3626e-05  Tolerance :   5.0000e-05

             **** THE GBW FILE WAS UPDATED (4061.gbw) ****
             **** DENSITY FILE WAS UPDATED (4061.scfp.tmp) ****
             **** ENERGY FILE WAS UPDATED (4061.en.tmp) ****

                    ********************************
                    * MULLIKEN POPULATION ANALYSIS *
                    ********************************

-----------------------
MULLIKEN ATOMIC CHARGES
-----------------------
   0 C :   -0.016818
   1 C :    0.128909
   2 O :   -0.349357
   3 C :    0.335387
   4 O :   -0.347859
   5 C :    0.127267
   6 C :   -0.030221
   7 H :    0.020527
   8 H :    0.027650
   9 H :    0.028587
  10 H :   -0.007307
  11 H :    0.011424
  12 H :   -0.010506
  13 H :   -0.011521
  14 H :    0.011707
  15 H :   -0.004503
  16 H :    0.029046
  17 H :    0.022027
  18 H :    0.035562
Sum of atomic charges:    0.0000000

--------------------------------
MULLIKEN REDUCED ORBITAL CHARGES
--------------------------------
  0 C s       :     2.986457  s :     2.986457
      pz      :     1.019705  p :     3.005884
      px      :     0.973934
      py      :     1.012245
      dz2     :     0.005717  d :     0.024478
      dxz     :     0.004497
      dyz     :     0.003682
      dx2y2   :     0.005385
      dxy     :     0.005197
  1 C s       :     3.000163  s :     3.000163
      pz      :     0.944585  p :     2.810580
      px      :     0.999604
      py      :     0.866392
      dz2     :     0.014791  d :     0.060348
      dxz     :     0.009365
      dyz     :     0.010940
      dx2y2   :     0.012752
      dxy     :     0.012501
  2 O s       :     3.775950  s :     3.775950
      pz      :     1.670491  p :     4.557559
      px      :     1.307071
      py      :     1.579997
      dz2     :     0.002508  d :     0.015848
      dxz     :     0.002406
      dyz     :     0.003104
      dx2y2   :     0.004928
      dxy     :     0.002901
  3 C s       :     2.936956  s :     2.936956
      pz      :     0.854296  p :     2.634140
      px      :     0.779826
      py      :     1.000018
      dz2     :     0.021586  d :     0.093517
      dxz     :     0.022857
      dyz     :     0.013350
      dx2y2   :     0.019650
      dxy     :     0.016074
  4 O s       :     3.774575  s :     3.774575
      pz      :     1.456405  p :     4.557435
      px      :     1.746264
      py      :     1.354766
      dz2     :     0.004339  d :     0.015850
      dxz     :     0.002858
      dyz     :     0.002854
      dx2y2   :     0.003197
      dxy     :     0.002601
  5 C s       :     2.999761  s :     2.999761
      pz      :     1.025094  p :     2.812640
      px      :     1.026782
      py      :     0.760764
      dz2     :     0.010828  d :     0.060332
      dxz     :     0.005410
      dyz     :     0.014974
      dx2y2   :     0.017596
      dxy     :     0.011524
  6 C s       :     2.985594  s :     2.985594
      pz      :     0.994245  p :     3.020019
      px      :     1.026184
      py      :     0.999591
      dz2     :     0.006701  d :     0.024608
      dxz     :     0.004409
      dyz     :     0.004556
      dx2y2   :     0.007138
      dxy     :     0.001805
  7 H s       :     0.955616  s :     0.955616
      pz      :     0.007984  p :     0.023857
      px      :     0.006083
      py      :     0.009789
  8 H s       :     0.948670  s :     0.948670
      pz      :     0.013014  p :     0.023680
      px      :     0.004939
      py      :     0.005728
  9 H s       :     0.947691  s :     0.947691
      pz      :     0.006126  p :     0.023722
      px      :     0.005835
      py      :     0.011761
 10 H s       :     0.986055  s :     0.986055
      pz      :     0.005052  p :     0.021253
      px      :     0.005134
      py      :     0.011067
 11 H s       :     0.966884  s :     0.966884
      pz      :     0.012670  p :     0.021692
      px      :     0.004878
      py      :     0.004144
 12 H s       :     0.990720  s :     0.990720
      pz      :     0.009023  p :     0.019786
      px      :     0.002945
      py      :     0.007817
 13 H s       :     0.991747  s :     0.991747
      pz      :     0.003261  p :     0.019774
      px      :     0.004629
      py      :     0.011884
 14 H s       :     0.966609  s :     0.966609
      pz      :     0.004771  p :     0.021684
      px      :     0.013770
      py      :     0.003142
 15 H s       :     0.983302  s :     0.983302
      pz      :     0.008856  p :     0.021201
      px      :     0.006378
      py      :     0.005967
 16 H s       :     0.947314  s :     0.947314
      pz      :     0.009285  p :     0.023641
      px      :     0.006238
      py      :     0.008118
 17 H s       :     0.954354  s :     0.954354
      pz      :     0.005198  p :     0.023619
      px      :     0.005520
      py      :     0.012901
 18 H s       :     0.940901  s :     0.940901
      pz      :     0.004592  p :     0.023537
      px      :     0.013229
      py      :     0.005717


                     *******************************
                     * LOEWDIN POPULATION ANALYSIS *
                     *******************************

----------------------
LOEWDIN ATOMIC CHARGES
----------------------
   0 C :   -0.073186
   1 C :    0.057673
   2 O :   -0.145469
   3 C :    0.117355
   4 O :   -0.145755
   5 C :    0.057150
   6 C :   -0.076214
   7 H :    0.032212
   8 H :    0.028916
   9 H :    0.029506
  10 H :    0.005464
  11 H :    0.006689
  12 H :   -0.000323
  13 H :    0.000005
  14 H :    0.006954
  15 H :    0.006159
  16 H :    0.029937
  17 H :    0.032452
  18 H :    0.030476

-------------------------------
LOEWDIN REDUCED ORBITAL CHARGES
-------------------------------
  0 C s       :     2.840184  s :     2.840184
      pz      :     1.070676  p :     3.164623
      px      :     1.025152
      py      :     1.068795
      dz2     :     0.016904  d :     0.068379
      dxz     :     0.010744
      dyz     :     0.010334
      dx2y2   :     0.017206
      dxy     :     0.013191
  1 C s       :     2.844540  s :     2.844540
      pz      :     1.002204  p :     2.956573
      px      :     1.018661
      py      :     0.935708
      dz2     :     0.038552  d :     0.141214
      dxz     :     0.018375
      dyz     :     0.024736
      dx2y2   :     0.033541
      dxy     :     0.026009
  2 O s       :     3.469848  s :     3.469848
      pz      :     1.681184  p :     4.645751
      px      :     1.356628
      py      :     1.607939
      dz2     :     0.004384  d :     0.029870
      dxz     :     0.004324
      dyz     :     0.005303
      dx2y2   :     0.010277
      dxy     :     0.005582
  3 C s       :     2.840027  s :     2.840027
      pz      :     0.914636  p :     2.829954
      px      :     0.857350
      py      :     1.057969
      dz2     :     0.050643  d :     0.212665
      dxz     :     0.048642
      dyz     :     0.031831
      dx2y2   :     0.046598
      dxy     :     0.034951
  4 O s       :     3.469606  s :     3.469606
      pz      :     1.497883  p :     4.646274
      px      :     1.744862
      py      :     1.403529
      dz2     :     0.008492  d :     0.029875
      dxz     :     0.004936
      dyz     :     0.005952
      dx2y2   :     0.006181
      dxy     :     0.004314
  5 C s       :     2.844383  s :     2.844383
      pz      :     1.049492  p :     2.957240
      px      :     1.070327
      py      :     0.837422
      dz2     :     0.026485  d :     0.141227
      dxz     :     0.013493
      dyz     :     0.033707
      dx2y2   :     0.041962
      dxy     :     0.025580
  6 C s       :     2.840067  s :     2.840067
      pz      :     1.038358  p :     3.167851
      px      :     1.066738
      py      :     1.062755
      dz2     :     0.018084  d :     0.068295
      dxz     :     0.012349
      dyz     :     0.013067
      dx2y2   :     0.020007
      dxy     :     0.004788
  7 H s       :     0.901159  s :     0.901159
      pz      :     0.021337  p :     0.066630
      px      :     0.018082
      py      :     0.027211
  8 H s       :     0.904193  s :     0.904193
      pz      :     0.038451  p :     0.066891
      px      :     0.014927
      py      :     0.013513
  9 H s       :     0.903645  s :     0.903645
      pz      :     0.015063  p :     0.066849
      px      :     0.017658
      py      :     0.034128
 10 H s       :     0.928815  s :     0.928815
      pz      :     0.013472  p :     0.065721
      px      :     0.016597
      py      :     0.035652
 11 H s       :     0.925661  s :     0.925661
      pz      :     0.041251  p :     0.067650
      px      :     0.015049
      py      :     0.011349
 12 H s       :     0.936132  s :     0.936132
      pz      :     0.029686  p :     0.064191
      px      :     0.010187
      py      :     0.024318
 13 H s       :     0.935835  s :     0.935835
      pz      :     0.009837  p :     0.064160
      px      :     0.015999
      py      :     0.038324
 14 H s       :     0.925380  s :     0.925380
      pz      :     0.013402  p :     0.067667
      px      :     0.043456
      py      :     0.010809
 15 H s       :     0.928043  s :     0.928043
      pz      :     0.028479  p :     0.065798
      px      :     0.016621
      py      :     0.020697
 16 H s       :     0.903135  s :     0.903135
      pz      :     0.028472  p :     0.066928
      px      :     0.016633
      py      :     0.021823
 17 H s       :     0.900895  s :     0.900895
      pz      :     0.014903  p :     0.066653
      px      :     0.014145
      py      :     0.037605
 18 H s       :     0.902468  s :     0.902468
      pz      :     0.013284  p :     0.067056
      px      :     0.040135
      py      :     0.013637


                      *****************************
                      * MAYER POPULATION ANALYSIS *
                      *****************************

  NA   - Mulliken gross atomic population
  ZA   - Total nuclear charge
  QA   - Mulliken gross atomic charge
  VA   - Mayer's total valence
  BVA  - Mayer's bonded valence
  FA   - Mayer's free valence

  ATOM       NA         ZA         QA         VA         BVA        FA
  0 C      6.0168     6.0000    -0.0168     4.0025     4.0025     0.0000
  1 C      5.8711     6.0000     0.1289     4.0736     4.0736     0.0000
  2 O      8.3494     8.0000    -0.3494     2.1577     2.1577    -0.0000
  3 C      5.6646     6.0000     0.3354     4.1276     4.1276     0.0000
  4 O      8.3479     8.0000    -0.3479     2.1608     2.1608     0.0000
  5 C      5.8727     6.0000     0.1273     4.0815     4.0815    -0.0000
  6 C      6.0302     6.0000    -0.0302     4.0027     4.0027    -0.0000
  7 H      0.9795     1.0000     0.0205     0.9895     0.9895     0.0000
  8 H      0.9723     1.0000     0.0277     0.9957     0.9957    -0.0000
  9 H      0.9714     1.0000     0.0286     0.9958     0.9958     0.0000
 10 H      1.0073     1.0000    -0.0073     0.9810     0.9810     0.0000
 11 H      0.9886     1.0000     0.0114     0.9883     0.9883     0.0000
 12 H      1.0105     1.0000    -0.0105     0.9913     0.9913    -0.0000
 13 H      1.0115     1.0000    -0.0115     0.9908     0.9908     0.0000
 14 H      0.9883     1.0000     0.0117     0.9894     0.9894    -0.0000
 15 H      1.0045     1.0000    -0.0045     0.9802     0.9802    -0.0000
 16 H      0.9710     1.0000     0.0290     0.9963     0.9963     0.0000
 17 H      0.9780     1.0000     0.0220     0.9887     0.9887     0.0000
 18 H      0.9644     1.0000     0.0356     0.9959     0.9959    -0.0000

  Mayer bond orders larger than 0.1
B(  0-C ,  1-C ) :   1.1169 B(  0-C ,  7-H ) :   0.9547 B(  0-C ,  8-H ) :   0.9639 
B(  0-C ,  9-H ) :   0.9651 B(  1-C ,  2-O ) :   0.9811 B(  1-C , 10-H ) :   0.9320 
B(  1-C , 11-H ) :   0.9384 B(  2-O ,  3-C ) :   1.0652 B(  3-C ,  4-O ) :   1.0653 
B(  3-C , 12-H ) :   0.9310 B(  3-C , 13-H ) :   0.9296 B(  4-O ,  5-C ) :   0.9853 
B(  5-C ,  6-C ) :   1.1195 B(  5-C , 14-H ) :   0.9374 B(  5-C , 15-H ) :   0.9305 
B(  6-C , 16-H ) :   0.9633 B(  6-C , 17-H ) :   0.9545 B(  6-C , 18-H ) :   0.9636 



 *********************************** NBO 6.0 ***********************************
             N A T U R A L   A T O M I C   O R B I T A L   A N D
          N A T U R A L   B O N D   O R B I T A L   A N A L Y S I S
 ***************************** Kiya KiyaLu (100703) ****************************
  (c) Copyright 1996-2015 Board of Regents of the University of Wisconsin System
      on behalf of the Theoretical Chemistry Institute.  All rights reserved.

          Cite this program as:

          NBO 6.0.  E. D. Glendening, J. K. Badenhoop, A. E. Reed,
          J. E. Carpenter, J. A. Bohmann, C. M. Morales, C. R. Landis,
          and F. Weinhold (Theoretical Chemistry Institute, University
          of Wisconsin, Madison, WI, 2013); http://nbo6.chem.wisc.edu/

       /NPA    / : Natural Population Analysis
       /NBO    / : Natural Bond Orbital Analysis
       /AONBO  / : Write the AO to NBO transformation to lfn77
       /FILE   / : Set to 4061

 Filename set to 4061

 Job title:  *** NBO job generated by orca_scf

 Warning: MOs are non-orthogonal; program will continue

 Warning: -1553.39872 electrons reside outside the linearly independent MO space


 NATURAL POPULATIONS:  Natural atomic orbital occupancies

  NAO Atom No lang   Type(AO)    Occupancy      Energy
 -------------------------------------------------------
   1    C  1  s      Cor( 1s)     1.99921      -9.77058
   2    C  1  s      Val( 2s)     1.09723      -0.21794
   3    C  1  s      Ryd( 3s)     0.00039       0.81119
   4    C  1  px     Val( 2p)     1.09387      -0.06849
   5    C  1  px     Ryd( 3p)     0.00109       0.47161
   6    C  1  py     Val( 2p)     1.23211      -0.06244
   7    C  1  py     Ryd( 3p)     0.00206       0.57038
   8    C  1  pz     Val( 2p)     1.23193      -0.06200
   9    C  1  pz     Ryd( 3p)     0.00175       0.56650
  10    C  1  dxy    Ryd( 3d)     0.00041       2.16031
  11    C  1  dxz    Ryd( 3d)     0.00035       2.10190
  12    C  1  dyz    Ryd( 3d)     0.00042       2.21896
  13    C  1  dx2y2  Ryd( 3d)     0.00052       2.22600
  14    C  1  dz2    Ryd( 3d)     0.00054       2.31448

  15    C  2  s      Cor( 1s)     1.99911      -9.82764
  16    C  2  s      Val( 2s)     1.00519      -0.20416
  17    C  2  s      Ryd( 3s)     0.00338       0.76727
  18    C  2  px     Val( 2p)     1.03445      -0.07520
  19    C  2  px     Ryd( 3p)     0.00256       0.64067
  20    C  2  py     Val( 2p)     0.95919      -0.06239
  21    C  2  py     Ryd( 3p)     0.00217       0.56156
  22    C  2  pz     Val( 2p)     1.06952      -0.06054
  23    C  2  pz     Ryd( 3p)     0.00204       0.57659
  24    C  2  dxy    Ryd( 3d)     0.00119       2.11775
  25    C  2  dxz    Ryd( 3d)     0.00095       2.07133
  26    C  2  dyz    Ryd( 3d)     0.00112       2.15864
  27    C  2  dx2y2  Ryd( 3d)     0.00123       2.20695
  28    C  2  dz2    Ryd( 3d)     0.00139       2.31476

  29    O  3  s      Cor( 1s)     1.99969     -18.56395
  30    O  3  s      Val( 2s)     1.61098      -0.76566
  31    O  3  s      Ryd( 3s)     0.00169       1.46541
  32    O  3  px     Val( 2p)     1.49337      -0.26819
  33    O  3  px     Ryd( 3p)     0.00147       1.31325
  34    O  3  py     Val( 2p)     1.70689      -0.25316
  35    O  3  py     Ryd( 3p)     0.00157       1.21874
  36    O  3  pz     Val( 2p)     1.77314      -0.24806
  37    O  3  pz     Ryd( 3p)     0.00137       1.14108
  38    O  3  dxy    Ryd( 3d)     0.00085       2.76566
  39    O  3  dxz    Ryd( 3d)     0.00077       2.71627
  40    O  3  dyz    Ryd( 3d)     0.00105       2.81455
  41    O  3  dx2y2  Ryd( 3d)     0.00119       2.97096
  42    O  3  dz2    Ryd( 3d)     0.00084       2.73592

  43    C  4  s      Cor( 1s)     1.99923      -9.87833
  44    C  4  s      Val( 2s)     0.96432      -0.19502
  45    C  4  s      Ryd( 3s)     0.00154       0.80217
  46    C  4  px     Val( 2p)     0.73463      -0.05414
  47    C  4  px     Ryd( 3p)     0.00776       0.49849
  48    C  4  py     Val( 2p)     1.16693      -0.08396
  49    C  4  py     Ryd( 3p)     0.00543       0.79517
  50    C  4  pz     Val( 2p)     0.86304      -0.06144
  51    C  4  pz     Ryd( 3p)     0.00522       0.56007
  52    C  4  dxy    Ryd( 3d)     0.00173       2.13053
  53    C  4  dxz    Ryd( 3d)     0.00238       2.06533
  54    C  4  dyz    Ryd( 3d)     0.00132       2.21541
  55    C  4  dx2y2  Ryd( 3d)     0.00194       2.21622
  56    C  4  dz2    Ryd( 3d)     0.00226       2.17167

  57    O  5  s      Cor( 1s)     1.99969     -18.56439
  58    O  5  s      Val( 2s)     1.61084      -0.76587
  59    O  5  s      Ryd( 3s)     0.00166       1.46396
  60    O  5  px     Val( 2p)     1.83494      -0.24526
  61    O  5  px     Ryd( 3p)     0.00162       1.11440
  62    O  5  py     Val( 2p)     1.52209      -0.26300
  63    O  5  py     Ryd( 3p)     0.00118       1.31596
  64    O  5  pz     Val( 2p)     1.61710      -0.26193
  65    O  5  pz     Ryd( 3p)     0.00154       1.24127
  66    O  5  dxy    Ryd( 3d)     0.00073       2.71805
  67    O  5  dxz    Ryd( 3d)     0.00097       2.77400
  68    O  5  dyz    Ryd( 3d)     0.00089       2.79597
  69    O  5  dx2y2  Ryd( 3d)     0.00099       2.84134
  70    O  5  dz2    Ryd( 3d)     0.00113       2.87617

  71    C  6  s      Cor( 1s)     1.99911      -9.82794
  72    C  6  s      Val( 2s)     1.00521      -0.20428
  73    C  6  s      Ryd( 3s)     0.00331       0.76346
  74    C  6  px     Val( 2p)     1.18015      -0.06523
  75    C  6  px     Ryd( 3p)     0.00230       0.61117
  76    C  6  py     Val( 2p)     0.77474      -0.05923
  77    C  6  py     Ryd( 3p)     0.00228       0.53333
  78    C  6  pz     Val( 2p)     1.10918      -0.07463
  79    C  6  pz     Ryd( 3p)     0.00214       0.63279
  80    C  6  dxy    Ryd( 3d)     0.00122       2.06249
  81    C  6  dxz    Ryd( 3d)     0.00057       2.12346
  82    C  6  dyz    Ryd( 3d)     0.00140       2.16580
  83    C  6  dx2y2  Ryd( 3d)     0.00166       2.31761
  84    C  6  dz2    Ryd( 3d)     0.00103       2.19491

  85    C  7  s      Cor( 1s)     1.99921      -9.77109
  86    C  7  s      Val( 2s)     1.09721      -0.21824
  87    C  7  s      Ryd( 3s)     0.00043       0.80593
  88    C  7  px     Val( 2p)     1.20973      -0.06340
  89    C  7  px     Ryd( 3p)     0.00117       0.53758
  90    C  7  py     Val( 2p)     1.22276      -0.06331
  91    C  7  py     Ryd( 3p)     0.00262       0.57369
  92    C  7  pz     Val( 2p)     1.12828      -0.06762
  93    C  7  pz     Ryd( 3p)     0.00101       0.48064
  94    C  7  dxy    Ryd( 3d)     0.00020       2.09382
  95    C  7  dxz    Ryd( 3d)     0.00040       2.13601
  96    C  7  dyz    Ryd( 3d)     0.00038       2.19255
  97    C  7  dx2y2  Ryd( 3d)     0.00067       2.40262
  98    C  7  dz2    Ryd( 3d)     0.00059       2.22062

  99    H  8  s      Val( 1s)     0.77150       0.06552
 100    H  8  s      Ryd( 2s)     0.00129       0.33225
 101    H  8  px     Ryd( 2p)     0.00026       1.78850
 102    H  8  py     Ryd( 2p)     0.00048       2.03175
 103    H  8  pz     Ryd( 2p)     0.00035       1.90101

 104    H  9  s      Val( 1s)     0.77383       0.07279
 105    H  9  s      Ryd( 2s)     0.00290       0.33455
 106    H  9  px     Ryd( 2p)     0.00016       1.72010
 107    H  9  py     Ryd( 2p)     0.00016       1.73145
 108    H  9  pz     Ryd( 2p)     0.00079       2.24622

 109    H 10  s      Val( 1s)     0.77348       0.07204
 110    H 10  s      Ryd( 2s)     0.00278       0.33737
 111    H 10  px     Ryd( 2p)     0.00023       1.79336
 112    H 10  py     Ryd( 2p)     0.00066       2.16281
 113    H 10  pz     Ryd( 2p)     0.00019       1.76552

 114    H 11  s      Val( 1s)     0.81281       0.05180
 115    H 11  s      Ryd( 2s)     0.00395       0.34550
 116    H 11  px     Ryd( 2p)     0.00024       1.82299
 117    H 11  py     Ryd( 2p)     0.00072       2.14781
 118    H 11  pz     Ryd( 2p)     0.00022       1.76115

 119    H 12  s      Val( 1s)     0.80109       0.06743
 120    H 12  s      Ryd( 2s)     0.00522       0.36141
 121    H 12  px     Ryd( 2p)     0.00025       1.77269
 122    H 12  py     Ryd( 2p)     0.00019       1.72077
 123    H 12  pz     Ryd( 2p)     0.00089       2.22918

 124    H 13  s      Val( 1s)     0.82191       0.04912
 125    H 13  s      Ryd( 2s)     0.00338       0.32480
 126    H 13  px     Ryd( 2p)     0.00016       1.74494
 127    H 13  py     Ryd( 2p)     0.00046       1.94630
 128    H 13  pz     Ryd( 2p)     0.00058       2.02348

 129    H 14  s      Val( 1s)     0.82120       0.04910
 130    H 14  s      Ryd( 2s)     0.00330       0.32610
 131    H 14  px     Ryd( 2p)     0.00027       1.78465
 132    H 14  py     Ryd( 2p)     0.00084       2.15636
 133    H 14  pz     Ryd( 2p)     0.00012       1.75577

 134    H 15  s      Val( 1s)     0.80065       0.06741
 135    H 15  s      Ryd( 2s)     0.00515       0.36189
 136    H 15  px     Ryd( 2p)     0.00104       2.25458
 137    H 15  py     Ryd( 2p)     0.00016       1.70575
 138    H 15  pz     Ryd( 2p)     0.00014       1.75029

 139    H 16  s      Val( 1s)     0.81167       0.05232
 140    H 16  s      Ryd( 2s)     0.00403       0.34482
 141    H 16  px     Ryd( 2p)     0.00027       1.81937
 142    H 16  py     Ryd( 2p)     0.00033       1.89880
 143    H 16  pz     Ryd( 2p)     0.00055       2.02703

 144    H 17  s      Val( 1s)     0.77283       0.07257
 145    H 17  s      Ryd( 2s)     0.00275       0.33795
 146    H 17  px     Ryd( 2p)     0.00022       1.78053
 147    H 17  py     Ryd( 2p)     0.00037       1.91184
 148    H 17  pz     Ryd( 2p)     0.00048       2.04432

 149    H 18  s      Val( 1s)     0.77106       0.06505
 150    H 18  s      Ryd( 2s)     0.00130       0.33147
 151    H 18  px     Ryd( 2p)     0.00016       1.71377
 152    H 18  py     Ryd( 2p)     0.00078       2.25603
 153    H 18  pz     Ryd( 2p)     0.00018       1.70832

 154    H 19  s      Val( 1s)     0.77272       0.07369
 155    H 19  s      Ryd( 2s)     0.00291       0.33536
 156    H 19  px     Ryd( 2p)     0.00083       2.28617
 157    H 19  py     Ryd( 2p)     0.00017       1.73292
 158    H 19  pz     Ryd( 2p)     0.00012       1.67087


 Summary of Natural Population Analysis:

                                     Natural Population
             Natural    ---------------------------------------------
  Atom No    Charge        Core      Valence    Rydberg      Total
 --------------------------------------------------------------------
    C  1   -0.66187      1.99921     4.65514    0.00751     6.66187
    C  2   -0.08349      1.99911     4.06835    0.01603     6.08349
    O  3   -0.59488      1.99969     6.58438    0.01081     8.59488
    C  4    0.24227      1.99923     3.72892    0.02958     5.75773
    O  5   -0.59536      1.99969     6.58497    0.01071     8.59536
    C  6   -0.08428      1.99911     4.06928    0.01589     6.08428
    C  7   -0.66467      1.99921     4.65798    0.00748     6.66467
    H  8    0.22612      0.00000     0.77150    0.00238     0.77388
    H  9    0.22216      0.00000     0.77383    0.00401     0.77784
    H 10    0.22266      0.00000     0.77348    0.00386     0.77734
    H 11    0.18206      0.00000     0.81281    0.00513     0.81794
    H 12    0.19236      0.00000     0.80109    0.00654     0.80764
    H 13    0.17351      0.00000     0.82191    0.00458     0.82649
    H 14    0.17427      0.00000     0.82120    0.00453     0.82573
    H 15    0.19285      0.00000     0.80065    0.00650     0.80715
    H 16    0.18315      0.00000     0.81167    0.00518     0.81685
    H 17    0.22336      0.00000     0.77283    0.00382     0.77664
    H 18    0.22652      0.00000     0.77106    0.00243     0.77348
    H 19    0.22325      0.00000     0.77272    0.00403     0.77675
 ====================================================================
 * Total *  0.00000     13.99524    43.85377    0.15099    58.00000

                                 Natural Population
 ---------------------------------------------------------
   Core                      13.99524 ( 99.9660% of   14)
   Valence                   43.85377 ( 99.6677% of   44)
   Natural Minimal Basis     57.84901 ( 99.7397% of   58)
   Natural Rydberg Basis      0.15099 (  0.2603% of   58)
 ---------------------------------------------------------

    Atom No         Natural Electron Configuration
 ----------------------------------------------------------------------------
      C  1      [core]2s( 1.10)2p( 3.56)
      C  2      [core]2s( 1.01)2p( 3.06)3p( 0.01)3d( 0.01)
      O  3      [core]2s( 1.61)2p( 4.97)
      C  4      [core]2s( 0.96)2p( 2.76)3p( 0.02)3d( 0.01)
      O  5      [core]2s( 1.61)2p( 4.97)
      C  6      [core]2s( 1.01)2p( 3.06)3p( 0.01)3d( 0.01)
      C  7      [core]2s( 1.10)2p( 3.56)
      H  8            1s( 0.77)
      H  9            1s( 0.77)
      H 10            1s( 0.77)
      H 11            1s( 0.81)
      H 12            1s( 0.80)2s( 0.01)
      H 13            1s( 0.82)
      H 14            1s( 0.82)
      H 15            1s( 0.80)2s( 0.01)
      H 16            1s( 0.81)
      H 17            1s( 0.77)
      H 18            1s( 0.77)
      H 19            1s( 0.77)


 NATURAL BOND ORBITAL ANALYSIS:

                            Occupancies       Lewis Structure    Low   High
         Max    Occ     -------------------  -----------------   occ   occ
  Cycle  Ctr   Thresh    Lewis   non-Lewis     CR  BD  nC  LP    (L)   (NL)
 ============================================================================
    1     2     1.90    54.05956   3.94044      7  16   0   4     4      4
    2     2     1.89    54.05956   3.94044      7  16   0   4     4      4
    3     2     1.88    57.44491   0.55509      7  18   0   4     0      0
 ----------------------------------------------------------------------------

 Structure accepted: No low occupancy Lewis orbitals

 -------------------------------------------------------
   Core                     13.99524 ( 99.966% of  14)
   Valence Lewis            43.44968 ( 98.749% of  44)
  ==================      =============================
   Total Lewis              57.44491 ( 99.043% of  58)
  -----------------------------------------------------
   Valence non-Lewis         0.44636 (  0.770% of  58)
   Rydberg non-Lewis         0.10873 (  0.187% of  58)
  ==================      =============================
   Total non-Lewis           0.55509 (  0.957% of  58)
 -------------------------------------------------------


     (Occupancy)   Bond orbital / Coefficients / Hybrids
 ------------------ Lewis ------------------------------------------------------
   1. (1.99921) CR ( 1) C  1            s(100.00%)
                                         1.0000  0.0000  0.0000  0.0000  0.0000
                                         0.0000  0.0000  0.0000  0.0000  0.0000
                                         0.0000  0.0000  0.0000  0.0000
   2. (1.99911) CR ( 1) C  2            s(100.00%)
                                         1.0000  0.0000  0.0000  0.0000  0.0000
                                         0.0000  0.0000  0.0000  0.0000  0.0000
                                         0.0000  0.0000  0.0000  0.0000
   3. (1.99969) CR ( 1) O  3            s(100.00%)
                                         1.0000  0.0000  0.0000  0.0000  0.0000
                                         0.0000  0.0000  0.0000  0.0000  0.0000
                                         0.0000  0.0000  0.0000  0.0000
   4. (1.99923) CR ( 1) C  4            s(100.00%)
                                         1.0000  0.0000  0.0000  0.0000  0.0000
                                         0.0000  0.0000  0.0000  0.0000  0.0000
                                         0.0000  0.0000  0.0000  0.0000
   5. (1.99969) CR ( 1) O  5            s(100.00%)
                                         1.0000  0.0000  0.0000  0.0000  0.0000
                                         0.0000  0.0000  0.0000  0.0000  0.0000
                                         0.0000  0.0000  0.0000  0.0000
   6. (1.99911) CR ( 1) C  6            s(100.00%)
                                         1.0000  0.0000  0.0000  0.0000  0.0000
                                         0.0000  0.0000  0.0000  0.0000  0.0000
                                         0.0000  0.0000  0.0000  0.0000
   7. (1.99921) CR ( 1) C  7            s(100.00%)
                                         1.0000  0.0000  0.0000  0.0000  0.0000
                                         0.0000  0.0000  0.0000  0.0000  0.0000
                                         0.0000  0.0000  0.0000  0.0000
   8. (1.95964) LP ( 1) O  3            s( 40.85%)p 1.45( 59.11%)d 0.00(  0.04%)
                                         0.0000  0.6391 -0.0076 -0.4449  0.0038
                                        -0.4874  0.0047  0.3944 -0.0026 -0.0138
                                         0.0115  0.0094  0.0020  0.0001
   9. (1.88576) LP ( 2) O  3            s(  0.04%)p99.99( 99.90%)d 1.17(  0.05%)
                                         0.0000  0.0209  0.0034  0.0387  0.0013
                                         0.6233 -0.0057  0.7803 -0.0033  0.0093
                                         0.0111  0.0027 -0.0078 -0.0156
  10. (1.95964) LP ( 1) O  5            s( 40.81%)p 1.45( 59.15%)d 0.00(  0.04%)
                                         0.0000  0.6388 -0.0075  0.3682 -0.0023
                                         0.4568 -0.0031 -0.4972  0.0053 -0.0098
                                         0.0099  0.0148 -0.0006 -0.0018
  11. (1.88600) LP ( 2) O  5            s(  0.05%)p99.99( 99.90%)d 1.13(  0.05%)
                                         0.0000  0.0212  0.0038  0.8641 -0.0052
                                        -0.2544  0.0044  0.4332 -0.0016 -0.0073
                                         0.0084 -0.0089 -0.0136  0.0116
  12. (1.98906) BD ( 1) C  1- C  2
               ( 49.99%)   0.7070* C  1 s( 29.84%)p 2.35( 70.13%)d 0.00(  0.04%)
                                         0.0000  0.5461  0.0109  0.8317  0.0081
                                        -0.0047  0.0013 -0.0974 -0.0023 -0.0005
                                        -0.0037  0.0000  0.0164 -0.0094
               ( 50.01%)   0.7072* C  2 s( 30.31%)p 2.30( 69.65%)d 0.00(  0.04%)
                                         0.0000  0.5499  0.0258 -0.8286  0.0064
                                         0.0044 -0.0025  0.0993  0.0018  0.0023
                                        -0.0062  0.0002  0.0166 -0.0093
  13. (1.98127) BD ( 1) C  1- H  8
               ( 61.19%)   0.7822* C  1 s( 23.13%)p 3.32( 76.83%)d 0.00(  0.04%)
                                         0.0000  0.4809 -0.0021 -0.3682 -0.0109
                                         0.6342 -0.0050 -0.4800  0.0050 -0.0082
                                         0.0064 -0.0150 -0.0074 -0.0002
               ( 38.81%)   0.6230* H  8 s( 99.91%)p 0.00(  0.09%)
                                         0.9995 -0.0002  0.0139 -0.0215  0.0160
  14. (1.98645) BD ( 1) C  1- H  9
               ( 61.32%)   0.7831* C  1 s( 23.55%)p 3.25( 76.42%)d 0.00(  0.03%)
                                         0.0000  0.4852 -0.0034 -0.2197 -0.0113
                                         0.1364 -0.0022  0.8349 -0.0065 -0.0016
                                        -0.0056  0.0051  0.0006  0.0164
               ( 38.68%)   0.6219* H  9 s( 99.90%)p 0.00(  0.10%)
                                         0.9995 -0.0031  0.0084 -0.0040 -0.0303
  15. (1.98584) BD ( 1) C  1- H 10
               ( 61.32%)   0.7831* C  1 s( 23.49%)p 3.26( 76.48%)d 0.00(  0.03%)
                                         0.0000  0.4846 -0.0035 -0.3515 -0.0104
                                        -0.7606  0.0076 -0.2499  0.0053  0.0095
                                         0.0039  0.0089 -0.0104 -0.0073
               ( 38.68%)   0.6219* H 10 s( 99.90%)p 0.00(  0.10%)
                                         0.9995 -0.0030  0.0127  0.0270  0.0078
  16. (1.98835) BD ( 1) C  2- O  3
               ( 31.94%)   0.5652* C  2 s( 20.16%)p 3.95( 79.61%)d 0.01(  0.23%)
                                         0.0000  0.4484  0.0234  0.3542 -0.0092
                                        -0.6484 -0.0286  0.4986  0.0250 -0.0244
                                         0.0188 -0.0341 -0.0143 -0.0020
               ( 68.06%)   0.8250* O  3 s( 29.16%)p 2.43( 70.76%)d 0.00(  0.08%)
                                         0.0000  0.5400  0.0070 -0.3206 -0.0125
                                         0.6083  0.0026 -0.4844 -0.0028 -0.0042
                                         0.0030 -0.0244 -0.0124  0.0016
  17. (1.98498) BD ( 1) C  2- H 11
               ( 59.97%)   0.7744* C  2 s( 24.58%)p 3.07( 75.38%)d 0.00(  0.04%)
                                         0.0000  0.4955 -0.0162  0.3638 -0.0073
                                         0.7427 -0.0009  0.2639 -0.0110  0.0122
                                         0.0036  0.0105 -0.0096 -0.0079
               ( 40.03%)   0.6327* H 11 s( 99.89%)p 0.00(  0.11%)
                                         0.9994 -0.0084 -0.0120 -0.0291 -0.0083
  18. (1.98596) BD ( 1) C  2- H 12
               ( 60.54%)   0.7781* C  2 s( 25.09%)p 2.98( 74.87%)d 0.00(  0.04%)
                                         0.0000  0.5006 -0.0174  0.2327 -0.0028
                                        -0.1575  0.0106 -0.8183  0.0040 -0.0007
                                        -0.0077  0.0063  0.0016  0.0166
               ( 39.46%)   0.6282* H 12 s( 99.88%)p 0.00(  0.12%)
                                         0.9994 -0.0086 -0.0095  0.0055  0.0325
  19. (1.99138) BD ( 1) O  3- C  4
               ( 68.41%)   0.8271* O  3 s( 29.93%)p 2.34( 69.98%)d 0.00(  0.08%)
                                         0.0000  0.5470  0.0100  0.8345  0.0089
                                        -0.0549 -0.0126 -0.0123  0.0095  0.0057
                                        -0.0092 -0.0027  0.0227 -0.0132
               ( 31.59%)   0.5620* C  4 s( 22.81%)p 3.37( 76.93%)d 0.01(  0.26%)
                                         0.0000  0.4774  0.0135 -0.8729 -0.0475
                                         0.0497 -0.0149 -0.0339  0.0355 -0.0057
                                         0.0019 -0.0007  0.0429 -0.0267
  20. (1.99137) BD ( 1) C  4- O  5
               ( 31.58%)   0.5620* C  4 s( 22.82%)p 3.37( 76.92%)d 0.01(  0.26%)
                                         0.0000  0.4775  0.0145  0.2693  0.0431
                                        -0.2964  0.0123 -0.7780 -0.0406 -0.0102
                                        -0.0256  0.0258 -0.0019  0.0338
               ( 68.42%)   0.8271* O  5 s( 29.95%)p 2.34( 69.97%)d 0.00(  0.08%)
                                         0.0000  0.5472  0.0089 -0.2998  0.0019
                                         0.2731  0.0170  0.7314  0.0053 -0.0013
                                        -0.0208  0.0038  0.0036  0.0190
  21. (1.98598) BD ( 1) C  4- H 13
               ( 59.64%)   0.7722* C  4 s( 27.20%)p 2.67( 72.75%)d 0.00(  0.05%)
                                         0.0000  0.5215 -0.0068  0.2298 -0.0103
                                        -0.5508  0.0295  0.6085  0.0045 -0.0040
                                         0.0065 -0.0176 -0.0098  0.0059
               ( 40.36%)   0.6353* H 13 s( 99.89%)p 0.00(  0.11%)
                                         0.9994 -0.0084 -0.0092  0.0190 -0.0250
  22. (1.98605) BD ( 1) C  4- H 14
               ( 59.67%)   0.7725* C  4 s( 27.20%)p 2.67( 72.75%)d 0.00(  0.05%)
                                         0.0000  0.5215 -0.0068  0.3233  0.0158
                                         0.7769 -0.0266  0.1356  0.0017  0.0132
                                         0.0034  0.0012 -0.0135 -0.0108
               ( 40.33%)   0.6350* H 14 s( 99.89%)p 0.00(  0.11%)
                                         0.9994 -0.0082 -0.0142 -0.0293 -0.0069
  23. (1.98833) BD ( 1) O  5- C  6
               ( 68.07%)   0.8250* O  5 s( 29.19%)p 2.42( 70.73%)d 0.00(  0.08%)
                                         0.0000  0.5402  0.0079 -0.1655  0.0023
                                        -0.8067 -0.0070 -0.1702 -0.0112  0.0149
                                        -0.0024 -0.0014 -0.0194 -0.0127
               ( 31.93%)   0.5651* C  6 s( 20.14%)p 3.95( 79.63%)d 0.01(  0.23%)
                                         0.0000  0.4482  0.0227  0.1562  0.0179
                                         0.8575  0.0317  0.1872 -0.0145  0.0141
                                         0.0027  0.0179 -0.0376 -0.0202
  24. (1.98912) BD ( 1) C  6- C  7
               ( 49.98%)   0.7069* C  6 s( 30.30%)p 2.30( 69.66%)d 0.00(  0.04%)
                                         0.0000  0.5498  0.0263  0.3628 -0.0017
                                        -0.1953  0.0053 -0.7258  0.0058 -0.0029
                                        -0.0141  0.0041  0.0036  0.0132
               ( 50.02%)   0.7073* C  7 s( 29.85%)p 2.35( 70.11%)d 0.00(  0.04%)
                                         0.0000  0.5462  0.0117 -0.3622 -0.0043
                                         0.1967  0.0002  0.7288  0.0073 -0.0037
                                        -0.0127  0.0072  0.0020  0.0124
  25. (1.98602) BD ( 1) C  6- H 15
               ( 60.56%)   0.7782* C  6 s( 25.11%)p 2.98( 74.86%)d 0.00(  0.04%)
                                         0.0000  0.5008 -0.0174 -0.8591  0.0073
                                        -0.0989 -0.0085 -0.0243  0.0014  0.0039
                                         0.0016  0.0002  0.0170 -0.0082
               ( 39.44%)   0.6280* H 15 s( 99.88%)p 0.00(  0.12%)
                                         0.9994 -0.0086  0.0345  0.0044  0.0002
  26. (1.98504) BD ( 1) C  6- H 16
               ( 60.04%)   0.7748* C  6 s( 24.60%)p 3.06( 75.36%)d 0.00(  0.04%)
                                         0.0000  0.4957 -0.0163  0.3235 -0.0074
                                        -0.4610 -0.0065  0.6605 -0.0092 -0.0085
                                         0.0097 -0.0144 -0.0019  0.0076
               ( 39.96%)   0.6322* H 16 s( 99.90%)p 0.00(  0.10%)
                                         0.9995 -0.0084 -0.0114  0.0186 -0.0233
  27. (1.98581) BD ( 1) C  7- H 17
               ( 61.36%)   0.7833* C  7 s( 23.49%)p 3.26( 76.48%)d 0.00(  0.04%)
                                         0.0000  0.4846 -0.0032 -0.3197  0.0097
                                         0.4860 -0.0067 -0.6529 -0.0052 -0.0082
                                         0.0096 -0.0129 -0.0031  0.0052
               ( 38.64%)   0.6216* H 17 s( 99.91%)p 0.00(  0.09%)
                                         0.9995 -0.0029  0.0100 -0.0172  0.0230
  28. (1.98123) BD ( 1) C  7- H 18
               ( 61.21%)   0.7823* C  7 s( 23.11%)p 3.33( 76.85%)d 0.00(  0.04%)
                                         0.0000  0.4807 -0.0023 -0.1387  0.0062
                                        -0.8417  0.0030 -0.2018 -0.0099  0.0068
                                         0.0007  0.0045 -0.0150 -0.0087
               ( 38.79%)   0.6228* H 18 s( 99.90%)p 0.00(  0.10%)
                                         0.9995 -0.0002  0.0040  0.0302  0.0086
  29. (1.98642) BD ( 1) C  7- H 19
               ( 61.38%)   0.7834* C  7 s( 23.56%)p 3.24( 76.41%)d 0.00(  0.03%)
                                         0.0000  0.4854 -0.0042  0.8641 -0.0035
                                         0.1272 -0.0031  0.0317 -0.0120  0.0045
                                         0.0029  0.0011  0.0150 -0.0088
               ( 38.62%)   0.6215* H 19 s( 99.90%)p 0.00(  0.10%)
                                         0.9995 -0.0032 -0.0315 -0.0051 -0.0004
 ---------------- non-Lewis ----------------------------------------------------
  30. (0.01020) BD*( 1) C  1- C  2
               ( 50.01%)   0.7072* C  1 s( 29.84%)p 2.35( 70.13%)d 0.00(  0.04%)
                                         0.0000 -0.5461 -0.0109 -0.8317 -0.0081
                                         0.0047 -0.0013  0.0974  0.0023  0.0005
                                         0.0037  0.0000 -0.0164  0.0094
               ( 49.99%)  -0.7070* C  2 s( 30.31%)p 2.30( 69.65%)d 0.00(  0.04%)
                                         0.0000 -0.5499 -0.0258  0.8286 -0.0064
                                        -0.0044  0.0025 -0.0993 -0.0018 -0.0023
                                         0.0062 -0.0002 -0.0166  0.0093
  31. (0.00526) BD*( 1) C  1- H  8
               ( 38.81%)   0.6230* C  1 s( 23.13%)p 3.32( 76.83%)d 0.00(  0.04%)
                                         0.0000 -0.4809  0.0021  0.3682  0.0109
                                        -0.6342  0.0050  0.4800 -0.0050  0.0082
                                        -0.0064  0.0150  0.0074  0.0002
               ( 61.19%)  -0.7822* H  8 s( 99.91%)p 0.00(  0.09%)
                                        -0.9995  0.0002 -0.0139  0.0215 -0.0160
  32. (0.01029) BD*( 1) C  1- H  9
               ( 38.68%)   0.6219* C  1 s( 23.55%)p 3.25( 76.42%)d 0.00(  0.03%)
                                         0.0000 -0.4852  0.0034  0.2197  0.0113
                                        -0.1364  0.0022 -0.8349  0.0065  0.0016
                                         0.0056 -0.0051 -0.0006 -0.0164
               ( 61.32%)  -0.7831* H  9 s( 99.90%)p 0.00(  0.10%)
                                        -0.9995  0.0031 -0.0084  0.0040  0.0303
  33. (0.01008) BD*( 1) C  1- H 10
               ( 38.68%)   0.6219* C  1 s( 23.49%)p 3.26( 76.48%)d 0.00(  0.03%)
                                         0.0000 -0.4846  0.0035  0.3515  0.0104
                                         0.7606 -0.0076  0.2499 -0.0053 -0.0095
                                        -0.0039 -0.0089  0.0104  0.0073
               ( 61.32%)  -0.7831* H 10 s( 99.90%)p 0.00(  0.10%)
                                        -0.9995  0.0030 -0.0127 -0.0270 -0.0078
  34. (0.03099) BD*( 1) C  2- O  3
               ( 68.06%)   0.8250* C  2 s( 20.16%)p 3.95( 79.61%)d 0.01(  0.23%)
                                         0.0000  0.4484  0.0234  0.3542 -0.0092
                                        -0.6484 -0.0286  0.4986  0.0250 -0.0244
                                         0.0188 -0.0341 -0.0143 -0.0020
               ( 31.94%)  -0.5652* O  3 s( 29.16%)p 2.43( 70.76%)d 0.00(  0.08%)
                                         0.0000  0.5400  0.0070 -0.3206 -0.0125
                                         0.6083  0.0026 -0.4844 -0.0028 -0.0042
                                         0.0030 -0.0244 -0.0124  0.0016
  35. (0.03186) BD*( 1) C  2- H 11
               ( 40.03%)   0.6327* C  2 s( 24.58%)p 3.07( 75.38%)d 0.00(  0.04%)
                                         0.0000 -0.4955  0.0162 -0.3638  0.0073
                                        -0.7427  0.0009 -0.2639  0.0110 -0.0122
                                        -0.0036 -0.0105  0.0096  0.0079
               ( 59.97%)  -0.7744* H 11 s( 99.89%)p 0.00(  0.11%)
                                        -0.9994  0.0084  0.0120  0.0291  0.0083
  36. (0.03023) BD*( 1) C  2- H 12
               ( 39.46%)   0.6282* C  2 s( 25.09%)p 2.98( 74.87%)d 0.00(  0.04%)
                                         0.0000 -0.5006  0.0174 -0.2327  0.0028
                                         0.1575 -0.0106  0.8183 -0.0040  0.0007
                                         0.0077 -0.0063 -0.0016 -0.0166
               ( 60.54%)  -0.7781* H 12 s( 99.88%)p 0.00(  0.12%)
                                        -0.9994  0.0086  0.0095 -0.0055 -0.0325
  37. (0.05856) BD*( 1) O  3- C  4
               ( 31.59%)   0.5620* O  3 s( 29.93%)p 2.34( 69.98%)d 0.00(  0.08%)
                                         0.0000 -0.5470 -0.0100 -0.8345 -0.0089
                                         0.0549  0.0126  0.0123 -0.0095 -0.0057
                                         0.0092  0.0027 -0.0227  0.0132
               ( 68.41%)  -0.8271* C  4 s( 22.81%)p 3.37( 76.93%)d 0.01(  0.26%)
                                         0.0000 -0.4774 -0.0135  0.8729  0.0475
                                        -0.0497  0.0149  0.0339 -0.0355  0.0057
                                        -0.0019  0.0007 -0.0429  0.0267
  38. (0.05876) BD*( 1) C  4- O  5
               ( 68.42%)   0.8271* C  4 s( 22.82%)p 3.37( 76.92%)d 0.01(  0.26%)
                                         0.0000  0.4775  0.0145  0.2693  0.0431
                                        -0.2964  0.0123 -0.7780 -0.0406 -0.0102
                                        -0.0256  0.0258 -0.0019  0.0338
               ( 31.58%)  -0.5620* O  5 s( 29.95%)p 2.34( 69.97%)d 0.00(  0.08%)
                                         0.0000  0.5472  0.0089 -0.2998  0.0019
                                         0.2731  0.0170  0.7314  0.0053 -0.0013
                                        -0.0208  0.0038  0.0036  0.0190
  39. (0.03547) BD*( 1) C  4- H 13
               ( 40.36%)   0.6353* C  4 s( 27.20%)p 2.67( 72.75%)d 0.00(  0.05%)
                                         0.0000 -0.5215  0.0068 -0.2298  0.0103
                                         0.5508 -0.0295 -0.6085 -0.0045  0.0040
                                        -0.0065  0.0176  0.0098 -0.0059
               ( 59.64%)  -0.7722* H 13 s( 99.89%)p 0.00(  0.11%)
                                        -0.9994  0.0084  0.0092 -0.0190  0.0250
  40. (0.03553) BD*( 1) C  4- H 14
               ( 40.33%)   0.6350* C  4 s( 27.20%)p 2.67( 72.75%)d 0.00(  0.05%)
                                         0.0000 -0.5215  0.0068 -0.3233 -0.0158
                                        -0.7769  0.0266 -0.1356 -0.0017 -0.0132
                                        -0.0034 -0.0012  0.0135  0.0108
               ( 59.67%)  -0.7725* H 14 s( 99.89%)p 0.00(  0.11%)
                                        -0.9994  0.0082  0.0142  0.0293  0.0069
  41. (0.03106) BD*( 1) O  5- C  6
               ( 31.93%)   0.5651* O  5 s( 29.19%)p 2.42( 70.73%)d 0.00(  0.08%)
                                         0.0000 -0.5402 -0.0079  0.1655 -0.0023
                                         0.8067  0.0070  0.1702  0.0112 -0.0149
                                         0.0024  0.0014  0.0194  0.0127
               ( 68.07%)  -0.8250* C  6 s( 20.14%)p 3.95( 79.63%)d 0.01(  0.23%)
                                         0.0000 -0.4482 -0.0227 -0.1562 -0.0179
                                        -0.8575 -0.0317 -0.1872  0.0145 -0.0141
                                        -0.0027 -0.0179  0.0376  0.0202
  42. (0.01023) BD*( 1) C  6- C  7
               ( 50.02%)   0.7073* C  6 s( 30.30%)p 2.30( 69.66%)d 0.00(  0.04%)
                                         0.0000  0.5498  0.0263  0.3628 -0.0017
                                        -0.1953  0.0053 -0.7258  0.0058 -0.0029
                                        -0.0141  0.0041  0.0036  0.0132
               ( 49.98%)  -0.7069* C  7 s( 29.85%)p 2.35( 70.11%)d 0.00(  0.04%)
                                         0.0000  0.5462  0.0117 -0.3622 -0.0043
                                         0.1967  0.0002  0.7288  0.0073 -0.0037
                                        -0.0127  0.0072  0.0020  0.0124
  43. (0.03032) BD*( 1) C  6- H 15
               ( 39.44%)   0.6280* C  6 s( 25.11%)p 2.98( 74.86%)d 0.00(  0.04%)
                                         0.0000 -0.5008  0.0174  0.8591 -0.0073
                                         0.0989  0.0085  0.0243 -0.0014 -0.0039
                                        -0.0016 -0.0002 -0.0170  0.0082
               ( 60.56%)  -0.7782* H 15 s( 99.88%)p 0.00(  0.12%)
                                        -0.9994  0.0086 -0.0345 -0.0044 -0.0002
  44. (0.03185) BD*( 1) C  6- H 16
               ( 39.96%)   0.6322* C  6 s( 24.60%)p 3.06( 75.36%)d 0.00(  0.04%)
                                         0.0000 -0.4957  0.0163 -0.3235  0.0074
                                         0.4610  0.0065 -0.6605  0.0092  0.0085
                                        -0.0097  0.0144  0.0019 -0.0076
               ( 60.04%)  -0.7748* H 16 s( 99.90%)p 0.00(  0.10%)
                                        -0.9995  0.0084  0.0114 -0.0186  0.0233
  45. (0.01006) BD*( 1) C  7- H 17
               ( 38.64%)   0.6216* C  7 s( 23.49%)p 3.26( 76.48%)d 0.00(  0.04%)
                                         0.0000 -0.4846  0.0032  0.3197 -0.0097
                                        -0.4860  0.0067  0.6529  0.0052  0.0082
                                        -0.0096  0.0129  0.0031 -0.0052
               ( 61.36%)  -0.7833* H 17 s( 99.91%)p 0.00(  0.09%)
                                        -0.9995  0.0029 -0.0100  0.0172 -0.0230
  46. (0.00530) BD*( 1) C  7- H 18
               ( 38.79%)   0.6228* C  7 s( 23.11%)p 3.33( 76.85%)d 0.00(  0.04%)
                                         0.0000 -0.4807  0.0023  0.1387 -0.0062
                                         0.8417 -0.0030  0.2018  0.0099 -0.0068
                                        -0.0007 -0.0045  0.0150  0.0087
               ( 61.21%)  -0.7823* H 18 s( 99.90%)p 0.00(  0.10%)
                                        -0.9995  0.0002 -0.0040 -0.0302 -0.0086
  47. (0.01031) BD*( 1) C  7- H 19
               ( 38.62%)   0.6215* C  7 s( 23.56%)p 3.24( 76.41%)d 0.00(  0.03%)
                                         0.0000 -0.4854  0.0042 -0.8641  0.0035
                                        -0.1272  0.0031 -0.0317  0.0120 -0.0045
                                        -0.0029 -0.0011 -0.0150  0.0088
               ( 61.38%)  -0.7834* H 19 s( 99.90%)p 0.00(  0.10%)
                                        -0.9995  0.0032  0.0315  0.0051  0.0004
  48. (0.00286) RY ( 1) C  1            s(  3.28%)p28.32( 92.89%)d 1.17(  3.83%)
                                         0.0000  0.0035  0.1811 -0.0047  0.3163
                                        -0.0075 -0.7047  0.0070  0.5763 -0.1435
                                         0.1241 -0.0217  0.0198 -0.0379
  49. (0.00154) RY ( 2) C  1            s(  0.02%)p99.99( 78.83%)d99.99( 21.14%)
                                         0.0000  0.0000  0.0149  0.0013  0.0931
                                         0.0112  0.5886  0.0123  0.6580  0.2937
                                         0.3202 -0.0149 -0.0067 -0.1497
  50. (0.00044) RY ( 3) C  1            s( 16.22%)p 5.11( 82.95%)d 0.05(  0.83%)
                                         0.0000  0.0086  0.4027 -0.0202  0.8238
                                         0.0000  0.2413  0.0005 -0.3037 -0.0768
                                        -0.0011 -0.0436  0.0148  0.0169
  51. (0.00013) RY ( 4) C  1            s( 48.71%)p 0.36( 17.34%)d 0.70( 33.94%)
                                         0.0000 -0.0058  0.6979  0.0077 -0.4049
                                        -0.0081  0.0962  0.0046  0.0099 -0.3032
                                         0.2067 -0.2794 -0.3317  0.1294
  52. (0.00007) RY ( 5) C  1            s( 17.56%)p 0.42(  7.33%)d 4.28( 75.10%)
  53. (0.00005) RY ( 6) C  1            s( 10.57%)p 1.20( 12.72%)d 7.26( 76.71%)
  54. (0.00001) RY ( 7) C  1            s(  0.54%)p 4.89(  2.64%)d99.99( 96.82%)
  55. (0.00000) RY ( 8) C  1            s(  0.04%)p99.99(  4.56%)d99.99( 95.40%)
  56. (0.00000) RY ( 9) C  1            s(  3.05%)p 0.29(  0.88%)d31.45( 96.07%)
  57. (0.00398) RY ( 1) C  2            s( 41.61%)p 0.95( 39.51%)d 0.45( 18.88%)
                                         0.0000 -0.0050  0.6451  0.0251  0.5582
                                         0.0219 -0.2860 -0.0215  0.0113 -0.1851
                                         0.1799  0.1078  0.3182 -0.0962
  58. (0.00219) RY ( 2) C  2            s( 10.63%)p 7.57( 80.41%)d 0.84(  8.96%)
                                         0.0000 -0.0119  0.3258  0.0015 -0.5493
                                         0.0279 -0.0142 -0.0134  0.7080 -0.2275
                                        -0.0882  0.0991  0.1261 -0.0660
  59. (0.00170) RY ( 3) C  2            s(  0.40%)p99.99( 81.99%)d43.54( 17.61%)
                                         0.0000 -0.0071  0.0632 -0.0071 -0.4298
                                        -0.0009 -0.7380 -0.0247 -0.2998  0.2191
                                         0.1807  0.0506 -0.1060 -0.2857
  60. (0.00141) RY ( 4) C  2            s(  0.63%)p14.39(  9.11%)d99.99( 90.26%)
                                         0.0000  0.0023  0.0795  0.0044  0.0507
                                        -0.0104  0.2562 -0.0071 -0.1507 -0.3108
                                        -0.2160  0.1886 -0.3690 -0.7665
  61. (0.00095) RY ( 5) C  2            s(  2.71%)p14.58( 39.46%)d21.38( 57.84%)
                                         0.0000 -0.0012  0.1645 -0.0048 -0.3531
                                         0.0103  0.3505 -0.0094 -0.3831 -0.3890
                                         0.5975 -0.2181  0.1399  0.0544
  62. (0.00045) RY ( 6) C  2            s(  8.21%)p 3.16( 25.93%)d 8.02( 65.86%)
                                         0.0000  0.0081  0.2865  0.0255 -0.2137
                                        -0.0333  0.3724  0.0201 -0.2698  0.5497
                                        -0.1911  0.3737  0.4162 -0.0839
  63. (0.00011) RY ( 7) C  2            s(  5.62%)p 3.78( 21.25%)d13.01( 73.13%)
                                         0.0000  0.0001  0.2371  0.0048 -0.1695
                                         0.0067 -0.1437  0.0059 -0.4037 -0.4013
                                        -0.6391 -0.0296 -0.0398  0.3992
  64. (0.00008) RY ( 8) C  2            s( 28.74%)p 0.09(  2.65%)d 2.39( 68.61%)
  65. (0.00001) RY ( 9) C  2            s(  1.30%)p 0.15(  0.19%)d75.78( 98.51%)
  66. (0.00284) RY ( 1) O  3            s( 44.04%)p 1.05( 46.23%)d 0.22(  9.74%)
                                         0.0000 -0.0078  0.6636 -0.0069 -0.5321
                                        -0.0082 -0.2856  0.0050  0.3122 -0.2388
                                         0.1383  0.0005  0.1246 -0.0757
  67. (0.00190) RY ( 2) O  3            s(  0.11%)p99.99( 95.49%)d41.21(  4.40%)
                                         0.0000  0.0006  0.0327  0.0009  0.0344
                                         0.0021  0.7056  0.0009  0.6752  0.0628
                                        -0.0078  0.0422 -0.0808 -0.1781
  68. (0.00055) RY ( 3) O  3            s( 24.78%)p 2.53( 62.68%)d 0.51( 12.54%)
                                         0.0000 -0.0020  0.4977 -0.0104  0.7551
                                         0.0004 -0.1869  0.0005  0.1471 -0.1460
                                        -0.1865 -0.0620 -0.2345  0.1023
  69. (0.00025) RY ( 4) O  3            s( 24.52%)p 1.52( 37.35%)d 1.56( 38.13%)
                                         0.0000  0.0045  0.4951 -0.0088 -0.0502
                                         0.0020  0.4123  0.0019 -0.4483  0.3476
                                        -0.3287  0.2456  0.2935  0.0772
  70. (0.00013) RY ( 5) O  3            s(  2.02%)p 1.66(  3.36%)d46.78( 94.62%)
                                         0.0000 -0.0010  0.1422  0.0113  0.0692
                                        -0.0055  0.1686  0.0065 -0.0127  0.2446
                                         0.6227 -0.3841  0.0912  0.5854
  71. (0.00009) RY ( 6) O  3            s(  1.27%)p23.15( 29.47%)d54.39( 69.25%)
  72. (0.00002) RY ( 7) O  3            s(  0.02%)p99.99( 16.83%)d99.99( 83.15%)
  73. (0.00001) RY ( 8) O  3            s(  3.25%)p 2.11(  6.87%)d27.64( 89.88%)
  74. (0.00001) RY ( 9) O  3            s(  0.00%)p 1.00(  1.97%)d49.80( 98.03%)
  75. (0.00995) RY ( 1) C  4            s(  0.01%)p 1.00( 91.48%)d 0.09(  8.51%)
                                         0.0000 -0.0002  0.0088 -0.0802  0.7564
                                         0.0098  0.0021  0.0564 -0.5770 -0.0015
                                        -0.1001  0.1155 -0.1614  0.1891
  76. (0.00418) RY ( 2) C  4            s(  5.22%)p13.84( 72.27%)d 4.31( 22.51%)
                                         0.0000 -0.0036  0.2285  0.0198 -0.0092
                                        -0.0382 -0.8483  0.0177  0.0292 -0.0495
                                        -0.2507  0.3239 -0.0356 -0.2315
  77. (0.00397) RY ( 3) C  4            s( 18.88%)p 1.44( 27.25%)d 2.85( 53.87%)
                                         0.0000 -0.0076  0.4345  0.0135 -0.2407
                                         0.0279  0.3279  0.0208 -0.3251 -0.5748
                                        -0.3823  0.0794  0.1516 -0.1812
  78. (0.00235) RY ( 4) C  4            s( 11.46%)p 1.26( 14.45%)d 6.46( 74.09%)
                                         0.0000  0.0053  0.3385 -0.0068 -0.2272
                                        -0.0020 -0.0659 -0.0099 -0.2972 -0.0983
                                         0.7487  0.1128 -0.3967 -0.0251
  79. (0.00096) RY ( 5) C  4            s(  0.01%)p 1.00(  8.13%)d11.30( 91.87%)
                                         0.0000  0.0000  0.0078  0.0189  0.1543
                                        -0.0158  0.1868 -0.0093 -0.1480  0.3753
                                         0.1597  0.1383  0.2967 -0.8032
  80. (0.00046) RY ( 6) C  4            s(  0.02%)p99.99( 57.88%)d99.99( 42.10%)
                                         0.0000  0.0002  0.0143 -0.0050  0.4443
                                        -0.0027  0.1624 -0.0063  0.5957 -0.4749
                                         0.1318  0.1938 -0.2780 -0.2515
[...]
  0 C                -0.2       0.0       0.2      -0.1      -0.5      -0.4
  1 C                -0.8      -0.6      -2.1      -2.3     -14.9      -8.6
  2 O               103.1     101.2      -6.2      -8.0      -2.9     -11.6
  3 C                -1.8      -0.4     122.9     150.6     138.2     144.9
  4 O                -0.1      -0.1      -6.9      -0.8      -9.6     -11.9
  5 C                 0.0      -0.0      -2.4     -16.7      -1.6      -7.6
  6 C                -0.0      -0.0       0.2      -0.7       0.0      -0.3
 10 H                -0.0      -0.0      -0.2      -0.0       0.7       0.0
 11 H                -0.0      -0.1      -0.0      -0.0       0.1       0.2
 12 H                -0.1      -0.0      -2.6     -14.6      -1.5      -2.4
 13 H                -0.1      -0.1      -2.7      -8.2      -8.0      -2.6
 14 H                -0.0      -0.0      -0.0       0.1       0.0       0.2
 15 H                -0.0      -0.0      -0.2       0.7      -0.0       0.0

                     78        79        80        81        82        83   
                   0.00000   0.00000   0.00000   0.00000   0.00000   0.00000
                   0.00096   0.00046   0.00015   0.00008   0.00002   0.00277
                  --------  --------  --------  --------  --------  --------
  0 C                -0.0      -0.4      -0.2      -0.1       0.0      -0.0
  1 C                -0.1      -4.5      -4.4      -1.1      -0.2      -0.1
  2 O                -3.1      -2.4     -10.0      -2.2      -0.1      -0.3
  3 C               113.9     127.3     169.1     115.7     112.4      -5.2
  4 O                -3.0      -2.6      -9.3      -2.5      -0.1     113.0
  5 C                -0.1      -3.9      -4.2      -1.2      -0.3      -7.0
  6 C                -0.0      -0.4      -0.2      -0.1       0.0       0.5
 10 H                 0.0      -0.1       0.1      -0.1       0.0      -0.0
 12 H                -3.6      -6.9     -20.5      -4.3      -5.9      -0.2
 13 H                -4.0      -6.2     -20.5      -4.0      -5.9       0.0
 14 H                 0.0      -0.0      -0.0      -0.0       0.0      -0.3
 15 H                 0.0      -0.1       0.1      -0.1       0.0      -0.2
 17 H                -0.0       0.0       0.0      -0.0       0.0      -0.1

                     84        85        86        87        88        89   
                   0.00000   0.00000   0.00000   0.00000   0.00000   0.00000
                   0.00187   0.00054   0.00026   0.00013   0.00009   0.00002
                  --------  --------  --------  --------  --------  --------
  1 C                 0.1       0.2       0.0      -0.0       0.0      -0.1
  2 O                -0.3      -0.2      -0.2      -0.1      -0.2      -0.1
  3 C                -4.7     -25.9      -0.5      -0.9      -3.6      -1.9
  4 O               111.1     128.4     114.5     102.3     107.8     103.5
  5 C                -5.2      -0.2     -13.5      -1.2      -4.5      -1.1
  6 C                -0.1      -2.3       0.6       0.0       0.5      -0.2
 11 H                -0.5      -0.0      -0.0       0.0      -0.0      -0.0
 12 H                -0.0      -0.2      -0.1      -0.0      -0.2       0.0
 13 H                -0.2       0.6      -0.2      -0.0       0.2      -0.0
 15 H                 0.1      -0.1      -0.1      -0.0       0.0      -0.0
 17 H                -0.0      -0.1      -0.2      -0.0      -0.0      -0.0

                     90        91        92        93        94        95   
                   0.00000   0.00000   0.00000   0.00000   0.00000   0.00000
                   0.00002   0.00001   0.00372   0.00216   0.00177   0.00139
                  --------  --------  --------  --------  --------  --------
  1 C                 0.0      -0.0       0.3       0.0      -0.1      -0.0
  2 O                -0.1      -0.1       0.2       0.0      -0.1      -0.0
  3 C                -1.8      -0.6     -25.4      -2.3      -1.8      -0.1
  4 O               103.0     101.5     -10.5     -10.4      -6.2      -1.3
  5 C                -0.7      -0.7     161.0     166.2     144.9     111.2
  6 C                -0.2       0.0      -3.5     -43.4     -18.6      -0.8
 11 H                -0.0      -0.0      -0.3      -0.0      -0.7       0.0
 12 H                -0.1      -0.1       0.7      -0.0       0.2       0.0
 13 H                -0.1       0.0      -0.4      -0.0      -0.0      -0.0
 14 H                -0.0      -0.1     -14.6      -6.5      -3.1      -5.8
 15 H                -0.0      -0.1      -7.6      -3.5     -14.1      -3.0
 16 H                 0.0      -0.0       0.0      -0.1      -0.1      -0.1
 17 H                -0.0      -0.0       0.1       0.1      -0.1      -0.1
 18 H                -0.0      -0.0      -0.0      -0.0      -0.2       0.0

                     96        97        98        99       100       101   
                   0.00000   0.00000   0.00000   0.00000   0.00000   0.00000
                   0.00095   0.00046   0.00011   0.00009   0.00001   0.00289
                  --------  --------  --------  --------  --------  --------
  1 C                 0.0      -0.1      -0.0      -0.0       0.0      -0.0
  3 C                -5.4       0.4       0.1      -1.6      -0.1      -0.1
  4 O                -5.1       1.9      -0.3      -1.6      -0.5      -1.9
  5 C               131.1     121.9     126.8     141.1     109.7     -13.3
  6 C               -13.8     -13.5     -11.7     -22.3      -2.5     138.4
 11 H                -0.1       0.1      -0.0      -0.0      -0.0      -0.0
 12 H                -0.3       0.1      -0.1       0.2      -0.0       0.0
 13 H                -0.2      -0.1       0.0      -0.1       0.0      -0.0
 14 H                -2.5      -4.8     -12.4      -4.8      -2.9      -0.1
 15 H                -3.3      -6.5      -2.9     -11.2      -3.6      -0.1
 16 H                 0.1      -0.2       0.4      -0.1      -0.0      -5.7
 17 H                -0.5       0.9       0.1       0.3      -0.0     -10.9
 18 H                -0.0      -0.1       0.0       0.1       0.0      -6.2

                    102       103       104       105       106       107   
                   0.00000   0.00000   0.00000   0.00000   0.00000   0.00000
                   0.00148   0.00047   0.00013   0.00007   0.00005   0.00001
                  --------  --------  --------  --------  --------  --------
  3 C                -0.1      -1.2      -0.2      -0.0      -0.0       0.0
  4 O                -0.1       0.6      -0.1       0.0      -0.0      -0.0
  5 C                -5.7     -80.6      -9.2      -5.4      -6.9      -2.1
  6 C               127.6     185.3     154.2     126.7     130.7     108.9
 14 H                -0.4       0.1      -0.1       0.1       0.2      -0.0
 15 H                -0.3       0.2      -0.0       0.1       0.1      -0.0
 16 H                -9.6      -0.2     -12.4      -2.4     -14.9      -2.8
 17 H                -1.5      -3.9     -19.1      -6.0      -5.1      -1.9
 18 H                -9.9      -0.2     -13.2     -13.0      -3.9      -2.1

                    108       109       110       111       112       113   
                   0.00000   0.00000   0.00000   0.00000   0.00000   0.00000
                   0.00000   0.00000   0.00133   0.00017   0.00014   0.00002
                  --------  --------  --------  --------  --------  --------
  0 C                -0.0      -0.0     -33.9      -2.9      -3.1      -8.1
  1 C                -0.0       0.0       0.5      -0.2      -0.1      -0.1
  2 O                -0.0      -0.0      -0.2      -0.0      -0.1      -0.1
  5 C                -2.0      -1.6      -0.0      -0.0      -0.0      -0.0
  6 C               108.2     112.6      -0.0      -0.0      -0.0      -0.0
  7 H                -0.0       0.0     134.7     103.8     104.1     108.6
  8 H                -0.0      -0.0      -0.2      -0.3      -0.4      -0.1
  9 H                 0.0      -0.0      -0.2      -0.3      -0.4      -0.1
 10 H                -0.0      -0.0      -0.3      -0.0      -0.0      -0.0
 11 H                -0.0      -0.0      -0.3      -0.0      -0.0      -0.0
 16 H                -2.7      -3.4      -0.0      -0.0      -0.0      -0.0
 17 H                -1.2      -4.4      -0.0      -0.0      -0.0      -0.0
 18 H                -2.3      -3.0      -0.0      -0.0      -0.0      -0.0

                    114       115       116       117       118       119   
                   0.00000   0.00000   0.00000   0.00000   0.00000   0.00000
                   0.00293   0.00015   0.00013   0.00003   0.00280   0.00015
                  --------  --------  --------  --------  --------  --------
  0 C               -33.8      -3.0      -3.1      -8.2     -34.4      -2.9
  1 C                -0.2      -0.2      -0.1      -0.1      -0.1      -0.2
  7 H                -0.3      -0.4      -0.4      -0.1      -0.3      -0.3
  8 H               135.0     104.0     104.1     108.6      -0.3      -0.3
  9 H                -0.3      -0.3      -0.4      -0.1     135.8     103.9
 10 H                -0.3      -0.0      -0.1      -0.0      -0.0      -0.1
 11 H                -0.1      -0.1      -0.0      -0.0      -0.3      -0.0
 14 H                -0.0      -0.0      -0.0      -0.0      -0.4      -0.0

                    120       121       122       123       124       125   
                   0.00000   0.00000   0.00000   0.00000   0.00000   0.00000
                   0.00013   0.00004   0.00404   0.00015   0.00011   0.00003
                  --------  --------  --------  --------  --------  --------
  0 C                -3.1      -8.2       0.1       0.1      -0.5      -0.1
  1 C                -0.1      -0.1     -33.1      -3.3      -3.7      -7.0
  2 O                -0.1      -0.0       0.0      -0.2      -0.1      -0.4
  3 C                -0.0      -0.0       0.4      -0.2      -0.0      -0.1
  7 H                -0.4      -0.1      -0.3      -0.0      -0.1      -0.0
  8 H                -0.4      -0.1      -0.3      -0.1      -0.0      -0.0
  9 H               104.1     108.5      -0.1      -0.0      -0.1      -0.0
 10 H                -0.0      -0.0     136.6     104.4     105.2     107.7
 11 H                -0.1      -0.0      -0.3      -0.6      -0.6      -0.1
 13 H                -0.0      -0.0      -3.1       0.0      -0.1      -0.1

                    126       127       128       129       130       131   
                   0.00000   0.00000   0.00000   0.00000   0.00000   0.00000
                   0.00530   0.00020   0.00012   0.00003   0.00348   0.00013
                  --------  --------  --------  --------  --------  --------
  0 C                -0.2      -0.3       0.1      -0.1      -0.1      -0.0
  1 C               -35.3      -3.3      -3.4      -7.3      -0.4      -0.0
  2 O                -0.0      -0.3      -0.2      -0.4       0.6      -0.2
  3 C                 0.3      -0.1      -0.3      -0.1     -39.7      -5.0
  4 O                -0.5      -0.0      -0.0      -0.0      -0.3      -0.1
  5 C                -1.0      -0.0       0.0      -0.0       0.5       0.0
  7 H                -0.3      -0.1      -0.0      -0.0       0.0      -0.0
  9 H                -0.3      -0.0      -0.1      -0.0      -0.0      -0.0
 10 H                -0.3      -0.6      -0.6      -0.0      -0.0      -0.0
 11 H               138.5     104.7     104.6     108.0       0.0      -0.0
 12 H                 0.0      -0.0      -0.0      -0.0     143.5     106.0
 13 H                -0.1      -0.0      -0.0      -0.0      -0.8      -0.6
 14 H                -0.4      -0.0       0.0      -0.0      -0.1      -0.0
 15 H                -0.0      -0.0      -0.0      -0.0      -3.1      -0.0
 16 H                -0.4      -0.0       0.0      -0.0      -0.0      -0.0

                    132       133       134       135       136       137   
                   0.00000   0.00000   0.00000   0.00000   0.00000   0.00000
                   0.00009   0.00002   0.00340   0.00013   0.00010   0.00002
                  --------  --------  --------  --------  --------  --------
  1 C                -0.1      -0.0       0.5       0.1      -0.0      -0.2
  2 O                -0.2      -0.7      -0.3      -0.1      -0.4      -0.3
  3 C                -3.1      -5.4     -39.4      -5.2      -3.2      -5.3
  4 O                -0.4      -0.3       0.6      -0.2      -0.2      -0.8
  5 C                -0.1      -0.2      -0.5      -0.0      -0.1      -0.0
 10 H                -0.0      -0.0      -3.1      -0.0      -0.1       0.0
 12 H               104.4     106.6      -0.8      -0.6      -0.4       0.1
 13 H                -0.4       0.1     143.2     106.1     104.5     106.5
 15 H                -0.1       0.0      -0.0      -0.0      -0.0      -0.0

                    138       139       140       141       142       143   
                   0.00000   0.00000   0.00000   0.00000   0.00000   0.00000
                   0.00523   0.00020   0.00012   0.00003   0.00412   0.00015
                  --------  --------  --------  --------  --------  --------
  1 C                -1.0      -0.0       0.0      -0.0      -0.0      -0.0
  2 O                -0.5      -0.0      -0.0      -0.0      -0.0      -0.0
  3 C                 0.3      -0.0      -0.3      -0.1       0.4      -0.2
  4 O                -0.0      -0.2      -0.3      -0.4       0.0      -0.2
  5 C               -35.3      -3.3      -3.4      -7.3     -33.1      -3.4
  6 C                -0.2      -0.4       0.1      -0.1       0.2       0.1
  9 H                -0.4      -0.0       0.0      -0.0       0.0      -0.0
 11 H                -0.4      -0.0       0.0      -0.0      -0.0      -0.0
 12 H                -0.1      -0.0      -0.0      -0.0      -3.1       0.0
 14 H               138.4     104.8     104.6     107.9      -0.3      -0.6
 15 H                -0.3      -0.6      -0.6      -0.0     136.6     104.5
 16 H                -0.3      -0.0      -0.1      -0.0      -0.1      -0.0
 17 H                -0.3      -0.1      -0.0      -0.0      -0.3      -0.0
 18 H                -0.1      -0.1      -0.0      -0.0      -0.3      -0.1

                    144       145       146       147       148       149   
                   0.00000   0.00000   0.00000   0.00000   0.00000   0.00000
                   0.00011   0.00003   0.00278   0.00016   0.00013   0.00004
                  --------  --------  --------  --------  --------  --------
  4 O                -0.1      -0.4      -0.0      -0.1      -0.1      -0.0
  5 C                -3.7      -6.9      -0.1      -0.1      -0.1      -0.1
  6 C                -0.5      -0.1     -34.4      -2.9      -3.2      -8.0
 11 H                -0.0      -0.0      -0.4      -0.0      -0.0      -0.0
 14 H                -0.6      -0.1      -0.3      -0.0      -0.1      -0.0
 15 H               105.2     107.7      -0.0      -0.1      -0.0      -0.0
 16 H                -0.1      -0.0     135.8     103.9     104.2     108.4
 17 H                -0.1      -0.0      -0.3      -0.4      -0.3      -0.1
 18 H                -0.0      -0.0      -0.3      -0.3      -0.4      -0.1

                    150       151       152       153       154       155   
                   0.00000   0.00000   0.00000   0.00000   0.00000   0.00000
                   0.00134   0.00016   0.00012   0.00002   0.00293   0.00015
                  --------  --------  --------  --------  --------  --------
  4 O                -0.2      -0.0      -0.1      -0.1      -0.1      -0.1
  5 C                 0.5      -0.2      -0.1      -0.1      -0.2      -0.2
  6 C               -33.8      -2.9      -3.2      -8.1     -34.0      -3.0
 14 H                -0.3      -0.0      -0.0      -0.0      -0.1      -0.1
 15 H                -0.3      -0.0      -0.0      -0.0      -0.3      -0.0
 16 H                -0.2      -0.3      -0.4      -0.1      -0.3      -0.4
 17 H               134.7     103.8     104.2     108.6      -0.3      -0.4
 18 H                -0.3      -0.3      -0.4      -0.1     135.3     104.0

                    156       157   
                   0.00000   0.00000
                   0.00012   0.00003
                  --------  --------
  5 C                -0.1      -0.1
  6 C                -3.2      -8.2
 16 H                -0.4      -0.1
 17 H                -0.3      -0.1
 18 H               104.2     108.6

Storing NBOs: 4061.nbo
                                    *** NBOs were stored ***

                                *** returned from GENNBO program ***

-------
TIMINGS
-------

Total SCF time: 0 days 0 hours 0 min 6 sec 

Total time                  ....       6.034 sec
Sum of individual times     ....       6.601 sec  (109.4%)

Fock matrix formation       ....       3.611 sec  ( 59.8%)
  Coulomb formation         ....       1.890 sec  ( 52.3% of F)
  Split-RI-J                ....       1.883 sec  ( 52.1% of F)
  XC integration            ....       1.717 sec  ( 47.5% of F)
    Basis function eval.    ....       0.600 sec  ( 34.9% of XC)
    Density eval.           ....       0.316 sec  ( 18.4% of XC)
    XC-Functional eval.     ....       0.104 sec  (  6.1% of XC)
    XC-Potential eval.      ....       0.660 sec  ( 38.4% of XC)
Diagonalization             ....       0.037 sec  (  0.6%)
Density matrix formation    ....       0.003 sec  (  0.1%)
Population analysis         ....       1.668 sec  ( 27.6%)
Initial guess               ....       0.427 sec  (  7.1%)
Orbital Transformation      ....       0.000 sec  (  0.0%)
Orbital Orthonormalization  ....       0.000 sec  (  0.0%)
DIIS solution               ....       0.009 sec  (  0.1%)
SOSCF solution              ....       0.011 sec  (  0.2%)
Grid generation             ....       0.835 sec  ( 13.8%)
           ************************************************************
           *              Shut down parallel processing               *
           ************************************************************

-------------------------   --------------------
FINAL SINGLE POINT ENERGY      -347.487925426631
-------------------------   --------------------


                            ***************************************
                            *     ORCA property calculations      *
                            ***************************************

                                    ---------------------
                                    Active property flags
                                    ---------------------
   (+) Dipole Moment


------------------------------------------------------------------------------
                       ORCA ELECTRIC PROPERTIES CALCULATION
------------------------------------------------------------------------------

Dipole Moment Calculation                       ... on
Quadrupole Moment Calculation                   ... off
Polarizability Calculation                      ... off
GBWName                                         ... 4061.gbw
Electron density file                           ... 4061.scfp.tmp

-------------
DIPOLE MOMENT
-------------
                                X             Y             Z
Electronic contribution:      1.94581       0.80106       2.61848
Nuclear contribution   :     -2.00867      -0.82176      -2.70126
                        -----------------------------------------
Total Dipole Moment    :     -0.06286      -0.02069      -0.08278
                        -----------------------------------------
Magnitude (a.u.)       :      0.10598
Magnitude (Debye)      :      0.26939


Timings for individual modules:

Sum of individual times         ...        7.271 sec (=   0.121 min)
GTO integral calculation        ...        0.480 sec (=   0.008 min)   6.6 %
SCF iterations                  ...        6.791 sec (=   0.113 min)  93.4 %
                             ****ORCA TERMINATED NORMALLY****
TOTAL RUN TIME: 0 days 0 hours 0 minutes 7 seconds 674 msec
