
                                 *****************
                                 * O   R   C   A *
                                 *****************

           --- An Ab Initio, DFT and Semiempirical electronic structure package ---

                  #######################################################
                  #                        -***-                        #
                  #  Department of molecular theory and spectroscopy    #
                  #              Directorship: Frank Neese              #
                  # Max Planck Institute for Chemical Energy Conversion #
                  #                  D-45470 Muelheim/Ruhr              #
                  #                       Germany                       #
                  #                                                     #
                  #                  All rights reserved                #
                  #                        -***-                        #
                  #######################################################


                         Program Version 3.0.3 - RELEASE   -


 With contributions from (in alphabetic order):
   Ute Becker             : Parallelization
   Dmytro Bykov           : SCF Hessian
   Dmitry Ganyushin       : Spin-Orbit,Spin-Spin,Magnetic field MRCI
   Andreas Hansen         : Spin unrestricted coupled pair/coupled cluster methods
   Dimitrios Liakos       : Extrapolation schemes; parallel MDCI
   Robert Izsak           : Overlap fitted RIJCOSX, COSX-SCS-MP3
   Christian Kollmar      : KDIIS, OOCD, Brueckner-CCSD(T), CCSD density
   Simone Kossmann        : Meta GGA functionals, TD-DFT gradient, OOMP2, MP2 Hessian
   Taras Petrenko         : DFT Hessian,TD-DFT gradient, ASA and ECA modules, normal mode analysis, Resonance Raman, ABS, FL, XAS/XES, NRVS
   Christoph Reimann      : Effective Core Potentials
   Michael Roemelt        : Restricted open shell CIS
   Christoph Riplinger    : Improved optimizer, TS searches, QM/MM, DLPNO-CCSD
   Barbara Sandhoefer     : DKH picture change effects
   Igor Schapiro          : Molecular dynamics
   Kantharuban Sivalingam : CASSCF convergence, NEVPT2
   Boris Wezisla          : Elementary symmetry handling
   Frank Wennmohs         : Technical directorship


 We gratefully acknowledge several colleagues who have allowed us to
 interface, adapt or use parts of their codes:
   Stefan Grimme, W. Hujo, H. Kruse, T. Risthaus : VdW corrections, initial TS optimization,
                                                   DFT functionals, gCP
   Ed Valeev                                     : LibInt (2-el integral package), F12 methods
   Garnet Chan, S. Sharma, R. Olivares           : DMRG
   Ulf Ekstrom                                   : XCFun DFT Library
   Mihaly Kallay                                 : mrcc  (arbitrary order and MRCC methods)
   Andreas Klamt, Michael Diedenhofen            : otool_cosmo (COSMO solvation model)
   Frank Weinhold                                : gennbo (NPA and NBO analysis)
   Christopher J. Cramer and Donald G. Truhlar   : smd solvation model


 Your calculation uses the libint2 library for the computation of 2-el integrals
 For citations please refer to: http://libint.valeyev.net

 This ORCA versions uses:
   CBLAS   interface :  Fast vector & matrix operations
   LAPACKE interface :  Fast linear algebra routines
   SCALAPACK package :  Parallel linear algebra routines


Your calculation utilizes the basis: Ahlrichs-VDZ
Cite in your paper:
H - Kr: A. Schaefer, H. Horn and R. Ahlrichs, J. Chem. Phys. 97, 2571 (1992).

Your calculation utilizes the basis: Ahlrichs SVPalls1+f
Cite in your paper:
Rb - Xe: A. Schaefer, C. Huber and R. Ahlrichs, J. Chem. Phys. 100, 5829 (1994).

================================================================================
                                        WARNINGS
                       Please study these warnings very carefully!
================================================================================
Now building the actual basis set


INFO   : the flag for use of LIBINT has been found!

================================================================================
                                       INPUT FILE
================================================================================
NAME = 4180.inp
|  1> ! RI PBE def2-SVP def2-SVP/J NBO PAL2
|  2> % maxcore 2000
|  3> % output
|  4>     # printlevel mini
|  5>     print[ P_Basis ] 0
|  6>     print[ P_SCFInfo ] 1
|  7>     print[ P_SCFIterInfo ] 1
|  8>     print[ P_OrbEn ] 0
|  9>     print[ P_Cartesian ] 0
| 10> end
| 11> *xyz 0 1
| 12>  C        1.4921390000    -2.0291210000     1.7095200000 
| 13>  O        2.8748240000    -1.8816540000     1.5557830000 
| 14>  C        3.2364270000    -1.5317130000     0.2451140000 
| 15>  C        4.7511630000    -1.4046860000     0.1440860000 
| 16>  C        5.2765440000    -0.3144750000     1.0755410000 
| 17>  C        5.4230960000    -2.7162640000     0.4129900000 
| 18>  C        6.1951570000    -3.3622290000    -0.4493710000 
| 19>  H        1.3006600000    -2.2938300000     2.7498320000 
| 20>  H        1.0958700000    -2.8238040000     1.0616640000 
| 21>  H        0.9583770000    -1.0967560000     1.4760620000 
| 22>  H        2.7666590000    -0.5735060000    -0.0318810000 
| 23>  H        2.8778190000    -2.2948320000    -0.4626490000 
| 24>  H        4.9651190000    -1.1183390000    -0.8927800000 
| 25>  H        5.0784460000    -0.5686150000     2.1184020000 
| 26>  H        4.7917180000     0.6429550000     0.8653880000 
| 27>  H        6.3537150000    -0.1876880000     0.9524400000 
| 28>  H        5.2465450000    -3.1399070000     1.3992420000 
| 29>  H        6.3915820000    -2.9667420000    -1.4419180000 
| 30>  H        6.6611410000    -4.3081930000    -0.1979660000 
| 31> *
| 32> 
| 33>                          ****END OF INPUT****
================================================================================

                       ****************************
                       * Single Point Calculation *
                       ****************************

--------------------------------
INTERNAL COORDINATES (ANGSTROEM)
--------------------------------
 C      0   0   0   0.000000     0.000     0.000
 O      1   0   0   1.398999     0.000     0.000
 C      2   1   0   1.403948   112.546     0.000
 C      3   2   1   1.523407   109.803   180.697
 C      4   3   2   1.527152   111.171   298.989
 C      4   3   2   1.498012   111.167    63.417
 C      6   4   3   1.325525   124.831   119.370
 H      1   2   3   1.090405   107.697   180.292
 H      1   2   3   1.099212   111.576    60.864
 H      1   2   3   1.099413   111.537   299.676
 H      3   2   1   1.102528   109.964    60.094
 H      3   2   1   1.100854   110.091   301.724
 H      4   3   2   1.096751   106.167   180.757
 H      5   4   3   1.091508   110.738    63.354
 H      5   4   3   1.093569   110.811   303.679
 H      5   4   3   1.091571   110.709   183.484
 H      6   4   3   1.087813   115.526   299.125
 H      7   6   4   1.086344   121.487   359.746
 H      7   6   4   1.084063   121.651   179.660

---------------------------
INTERNAL COORDINATES (A.U.)
---------------------------
 C      0   0   0   0.000000     0.000     0.000
 O      1   0   0   2.643726     0.000     0.000
 C      2   1   0   2.653076   112.546     0.000
 C      3   2   1   2.878821   109.803   180.697
 C      4   3   2   2.885899   111.171   298.989
 C      4   3   2   2.830833   111.167    63.417
 C      6   4   3   2.504878   124.831   119.370
 H      1   2   3   2.060568   107.697   180.292
 H      1   2   3   2.077210   111.576    60.864
 H      1   2   3   2.077590   111.537   299.676
 H      3   2   1   2.083477   109.964    60.094
 H      3   2   1   2.080312   110.091   301.724
 H      4   3   2   2.072559   106.167   180.757
 H      5   4   3   2.062651   110.738    63.354
 H      5   4   3   2.066546   110.811   303.679
 H      5   4   3   2.062769   110.709   183.484
 H      6   4   3   2.055668   115.526   299.125
 H      7   6   4   2.052892   121.487   359.746
 H      7   6   4   2.048583   121.651   179.660



           ************************************************************
           *        Program running with 2 parallel MPI-processes     *
           *              working on a common directory               *
           ************************************************************
------------------------------------------------------------------------------
                           ORCA GTO INTEGRAL CALCULATION
                           -- RI-GTO INTEGRALS CHOSEN --
------------------------------------------------------------------------------

                         BASIS SET STATISTICS AND STARTUP INFO

Gaussian basis set:
 # of primitive gaussian shells          ...  144
 # of primitive gaussian functions       ...  252
 # of contracted shells                  ...   78
 # of contracted basis functions         ...  158
 Highest angular momentum                ...    2
 Maximum contraction depth               ...    5
Auxiliary gaussian basis set:
 # of primitive gaussian shells          ...  264
 # of primitive gaussian functions       ...  682
 # of contracted shells                  ...  165
 # of contracted aux-basis functions     ...  475
 Highest angular momentum                ...    4
 Maximum contraction depth               ...    7
Ratio of auxiliary to basis functions    ...  3.01
Integral package used                  ... LIBINT
 One Electron integrals                  ... done
 Ordering auxiliary basis shells         ... done
 Integral threshhold             Thresh  ...  1.000e-10
 Primitive cut-off               TCut    ...  1.000e-11
 Pre-screening matrix                    ... done
 Shell pair data                         ... 
 Ordering of the shell pairs             ... done (   0.000 sec) 2914 of 3081 pairs
 Determination of significant pairs      ... done (   0.000 sec)
 Creation of shell pair data             ... done (   0.000 sec)
 Storage of shell pair data              ... done (   0.001 sec)
 Shell pair data done in (   0.001 sec)
 Computing two index integrals           ... done
 Cholesky decomposition of the V-matrix  ... done


Timings:
 Total evaluation time                   ...   0.161 sec (  0.003 min)
 One electron matrix time                ...   0.021 sec (  0.000 min) = 13.0%
 Schwartz matrix evaluation time         ...   0.076 sec (  0.001 min) = 47.6%
 Two index repulsion integral time       ...   0.004 sec (  0.000 min) =  2.7%
 Cholesky decomposition of V             ...   0.004 sec (  0.000 min) =  2.6%
 Three index repulsion integral time     ...   0.000 sec (  0.000 min) =  0.0%

           ************************************************************
           *              Shut down parallel processing               *
           ************************************************************


           ************************************************************
           *        Program running with 2 parallel MPI-processes     *
           *              working on a common directory               *
           ************************************************************
-------------------------------------------------------------------------------
                                 ORCA SCF
-------------------------------------------------------------------------------

------------
SCF SETTINGS
------------
Hamiltonian:
 Density Functional     Method          .... DFT(GTOs)
 Exchange Functional    Exchange        .... PBE
   PBE kappa parameter  XKappa          ....  0.804000
 Correlation Functional Correlation     .... PBE
 LDA part of GGA corr.  LDAOpt          .... PW91-LDA
 Gradients option       PostSCFGGA      .... off
   NL short-range parameter             ....  6.400000
 RI-approximation to the Coulomb term is turned on
   Number of auxiliary basis functions  .... 475


General Settings:
 Integral files         IntName         .... 4180
 Hartree-Fock type      HFTyp           .... RHF
 Total Charge           Charge          ....    0
 Multiplicity           Mult            ....    1
 Number of Electrons    NEL             ....   56
 Basis Dimension        Dim             ....  158
 Nuclear Repulsion      ENuc            ....    313.6443214060 Eh

Convergence Acceleration:
 DIIS                   CNVDIIS         .... on
   Start iteration      DIISMaxIt       ....    12
   Startup error        DIISStart       ....  0.200000
   # of expansion vecs  DIISMaxEq       ....     5
   Bias factor          DIISBfac        ....   1.050
   Max. coefficient     DIISMaxC        ....  10.000
 Newton-Raphson         CNVNR           .... off
 SOSCF                  CNVSOSCF        .... on
   Start iteration      SOSCFMaxIt      ....   150
   Startup grad/error   SOSCFStart      ....  0.003300
 Level Shifting         CNVShift        .... on
   Level shift para.    LevelShift      ....    0.2500
   Turn off err/grad.   ShiftErr        ....    0.0010
 Zerner damping         CNVZerner       .... off
 Static damping         CNVDamp         .... on
   Fraction old density DampFac         ....    0.7000
   Max. Damping (<1)    DampMax         ....    0.9800
   Min. Damping (>=0)   DampMin         ....    0.0000
   Turn off err/grad.   DampErr         ....    0.1000
 Fernandez-Rico         CNVRico         .... off

SCF Procedure:
 Maximum # iterations   MaxIter         ....   125
 SCF integral mode      SCFMode         .... Direct
   Integral package                     .... LIBINT
 Reset frequeny         DirectResetFreq ....    20
 Integral Threshold     Thresh          ....  1.000e-10 Eh
 Primitive CutOff       TCut            ....  1.000e-11 Eh

Convergence Tolerance:
 Convergence Check Mode ConvCheckMode   .... Total+1el-Energy
 Energy Change          TolE            ....  1.000e-06 Eh
 1-El. energy change                    ....  1.000e-03 Eh
 Orbital Gradient       TolG            ....  5.000e-05
 Orbital Rotation angle TolX            ....  5.000e-05
 DIIS Error             TolErr          ....  1.000e-06


Diagonalization of the overlap matrix:
Smallest eigenvalue                        ... 1.792e-03
Time for diagonalization                   ...    0.014 sec
Threshold for overlap eigenvalues          ... 1.000e-08
Number of eigenvalues below threshold      ... 0
Time for construction of square roots      ...    0.003 sec
Total time needed                          ...    0.018 sec

-------------------
DFT GRID GENERATION
-------------------

General Integration Accuracy     IntAcc      ...  4.340
Radial Grid Type                 RadialGrid  ... Gauss-Chebyshev
Angular Grid (max. acc.)         AngularGrid ... Lebedev-110
Angular grid pruning method      GridPruning ... 3 (G Style)
Weight generation scheme         WeightScheme... Becke
Basis function cutoff            BFCut       ...    1.0000e-10
Integration weight cutoff        WCut        ...    1.0000e-14
Grids for H and He will be reduced by one unit

# of grid points (after initial pruning)     ...  21180 (   0.0 sec)
# of grid points (after weights+screening)   ...  19548 (   0.1 sec)
nearest neighbour list constructed           ...    0.0 sec
Grid point re-assignment to atoms done       ...    0.0 sec
Grid point division into batches done        ...    0.0 sec
Reduced shell lists constructed in    0.1 sec

Total number of grid points                  ...    19548
Total number of batches                      ...      315
Average number of points per batch           ...       62
Average number of grid points per atom       ...     1029
Average number of shells per batch           ...    56.35 (72.25%)
Average number of basis functions per batch  ...   110.20 (69.75%)
Average number of large shells per batch     ...    44.19 (78.43%)
Average number of large basis fcns per batch ...    85.62 (77.69%)
Maximum spatial batch extension              ...  19.17, 21.59, 25.60 au
Average spatial batch extension              ...   1.43,  1.50,  1.44 au

Time for grid setup =    0.165 sec

------------------------------
INITIAL GUESS: MODEL POTENTIAL
------------------------------
Loading Hartree-Fock densities                     ... done
Calculating cut-offs                               ... done
Setting up the integral package                    ... done
Initializing the effective Hamiltonian             ... done
Starting the Coulomb interaction                   ... done (   0.1 sec)
Reading the grid                                   ... done
Mapping shells                                     ... done
Starting the XC term evaluation                    ... done (   0.1 sec)
  promolecular density results
     # of electrons  =     55.980821439
     EX              =    -42.363740281
     EC              =     -1.822798810
     EX+EC           =    -44.186539091
Transforming the Hamiltonian                       ... done (   0.0 sec)
Diagonalizing the Hamiltonian                      ... done (   0.0 sec)
Back transforming the eigenvectors                 ... done (   0.0 sec)
Now organizing SCF variables                       ... done
                      ------------------
                      INITIAL GUESS DONE (   0.4 sec)
                      ------------------
--------------
SCF ITERATIONS
--------------
ITER       Energy         Delta-E        Max-DP      RMS-DP      [F,P]     Damp
               ***  Starting incremental Fock matrix formation  ***
  0   -310.2264984473   0.000000000000 0.07236696  0.00234485  0.1573910 0.7000
  1   -310.3118390548  -0.085340607524 0.04085282  0.00171047  0.0706071 0.7000
                               ***Turning on DIIS***
  2   -310.3428001993  -0.030961144491 0.05196512  0.00270693  0.0233733 0.0000
  3   -310.3863764018  -0.043576202494 0.03259443  0.00121876  0.0447143 0.0000
  4   -310.4010275044  -0.014651102616 0.00796621  0.00035985  0.0111864 0.0000
  5   -310.4017898177  -0.000762313282 0.00429423  0.00015975  0.0065726 0.0000
                      *** Initiating the SOSCF procedure ***
                           *** Shutting down DIIS ***
                      *** Re-Reading the Fockian *** 
                      *** Removing any level shift *** 
ITER      Energy       Delta-E        Grad      Rot      Max-DP    RMS-DP
  6   -310.40188849  -0.0000986679  0.000275  0.000275  0.001069  0.000050
               *** Restarting incremental Fock matrix formation ***
  7   -310.40189346  -0.0000049722  0.000278  0.001320  0.001081  0.000036
  8   -310.40189117   0.0000022921  0.000766  0.001075  0.000835  0.000018
  9   -310.40189446  -0.0000032979  0.000073  0.000177  0.000248  0.000010
 10   -310.40189434   0.0000001226  0.000059  0.000074  0.000145  0.000005
                 **** Energy Check signals convergence ****
              ***Rediagonalizing the Fockian in SOSCF/NRSCF***

               *****************************************************
               *                     SUCCESS                       *
               *           SCF CONVERGED AFTER  11 CYCLES          *
               *****************************************************

Setting up the final grid:

General Integration Accuracy     IntAcc      ...  4.670
Radial Grid Type                 RadialGrid  ... Gauss-Chebyshev
Angular Grid (max. acc.)         AngularGrid ... Lebedev-302
Angular grid pruning method      GridPruning ... 3 (G Style)
Weight generation scheme         WeightScheme... Becke
Basis function cutoff            BFCut       ...    1.0000e-10
Integration weight cutoff        WCut        ...    1.0000e-14
Grids for H and He will be reduced by one unit

# of grid points (after initial pruning)     ...  84212 (   0.0 sec)
# of grid points (after weights+screening)   ...  76418 (   0.1 sec)
nearest neighbour list constructed           ...    0.0 sec
Grid point re-assignment to atoms done       ...    0.0 sec
Grid point division into batches done        ...    0.2 sec
Reduced shell lists constructed in    0.5 sec

Total number of grid points                  ...    76418
Total number of batches                      ...     1202
Average number of points per batch           ...       63
Average number of grid points per atom       ...     4022
Average number of shells per batch           ...    52.80 (67.69%)
Average number of basis functions per batch  ...   102.53 (64.89%)
Average number of large shells per batch     ...    40.58 (76.87%)
Average number of large basis fcns per batch ...    77.61 (75.70%)
Maximum spatial batch extension              ...  18.69, 18.82, 17.35 au
Average spatial batch extension              ...   0.95,  0.97,  0.96 au

Final grid set up in    0.7 sec
Final integration                            ... done (   0.5 sec)
Change in XC energy                          ...     0.000371330
Integrated number of electrons               ...    55.999936655
Previous integrated no of electrons          ...    55.996640014

----------------
TOTAL SCF ENERGY
----------------

Total Energy       :         -310.40152322 Eh           -8446.45486 eV

Components:
Nuclear Repulsion  :          313.64432141 Eh            8534.69588 eV
Electronic Energy  :         -624.04584463 Eh          -16981.15074 eV

One Electron Energy:        -1040.92405133 Eh          -28324.98345 eV
Two Electron Energy:          416.87820670 Eh           11343.83271 eV

Virial components:
Potential Energy   :         -617.72402045 Eh          -16809.12516 eV
Kinetic Energy     :          307.32249723 Eh            8362.67030 eV
Virial Ratio       :            2.01001888


DFT components:
N(Alpha)           :       27.999968327723 electrons
N(Beta)            :       27.999968327723 electrons
N(Total)           :       55.999936655446 electrons
E(X)               :      -43.332072861443 Eh       
E(C)               :       -1.835241603351 Eh       
E(XC)              :      -45.167314464794 Eh       

---------------
SCF CONVERGENCE
---------------

  Last Energy change         ...   -2.1234e-07  Tolerance :   1.0000e-06
  Last MAX-Density change    ...    4.3350e-05  Tolerance :   1.0000e-05
  Last RMS-Density change    ...    1.4236e-06  Tolerance :   1.0000e-06
  Last Orbital Gradient      ...    8.3462e-06  Tolerance :   5.0000e-05
  Last Orbital Rotation      ...    1.2429e-05  Tolerance :   5.0000e-05

             **** THE GBW FILE WAS UPDATED (4180.gbw) ****
             **** DENSITY FILE WAS UPDATED (4180.scfp.tmp) ****
             **** ENERGY FILE WAS UPDATED (4180.en.tmp) ****

                    ********************************
                    * MULLIKEN POPULATION ANALYSIS *
                    ********************************

-----------------------
MULLIKEN ATOMIC CHARGES
-----------------------
   0 C :    0.149692
   1 O :   -0.349402
   2 C :    0.200351
   3 C :   -0.069488
   4 C :    0.019454
   5 C :   -0.046426
   6 C :   -0.032234
   7 H :    0.030632
   8 H :    0.005812
   9 H :    0.004112
  10 H :   -0.013669
  11 H :   -0.001767
  12 H :   -0.007634
  13 H :    0.032477
  14 H :    0.009749
  15 H :    0.024800
  16 H :    0.010216
  17 H :    0.012095
  18 H :    0.021228
Sum of atomic charges:   -0.0000000

--------------------------------
MULLIKEN REDUCED ORBITAL CHARGES
--------------------------------
  0 C s       :     3.003667  s :     3.003667
      pz      :     1.029898  p :     2.793819
      px      :     0.743355
      py      :     1.020566
      dz2     :     0.009171  d :     0.052822
      dxz     :     0.009784
      dyz     :     0.004320
      dx2y2   :     0.013067
      dxy     :     0.016480
  1 O s       :     3.780881  s :     3.780881
      pz      :     1.412144  p :     4.552153
      px      :     1.332049
      py      :     1.807960
      dz2     :     0.005287  d :     0.016367
      dxz     :     0.003038
      dyz     :     0.002389
      dx2y2   :     0.003501
      dxy     :     0.002153
  2 C s       :     2.975151  s :     2.975151
      pz      :     0.777726  p :     2.763282
      px      :     1.004091
      py      :     0.981466
      dz2     :     0.017060  d :     0.061215
      dxz     :     0.012755
      dyz     :     0.016501
      dx2y2   :     0.007341
      dxy     :     0.007558
  3 C s       :     3.052400  s :     3.052400
      pz      :     1.001271  p :     2.975532
      px      :     0.981354
      py      :     0.992907
      dz2     :     0.009977  d :     0.041556
      dxz     :     0.004133
      dyz     :     0.007189
      dx2y2   :     0.010827
      dxy     :     0.009430
  4 C s       :     2.989459  s :     2.989459
      pz      :     1.009339  p :     2.965927
      px      :     0.990613
      py      :     0.965975
      dz2     :     0.008429  d :     0.025160
      dxz     :     0.001970
      dyz     :     0.003897
      dx2y2   :     0.006515
      dxy     :     0.004349
  5 C s       :     3.172448  s :     3.172448
      pz      :     0.945634  p :     2.840581
      px      :     0.947081
      py      :     0.947866
      dz2     :     0.008340  d :     0.033396
      dxz     :     0.004080
      dyz     :     0.008437
      dx2y2   :     0.006782
      dxy     :     0.005756
  6 C s       :     3.102384  s :     3.102384
      pz      :     0.952233  p :     2.905713
      px      :     1.005105
      py      :     0.948375
      dz2     :     0.007542  d :     0.024137
      dxz     :     0.003733
      dyz     :     0.005260
      dx2y2   :     0.003727
      dxy     :     0.003874
  7 H s       :     0.947421  s :     0.947421
      pz      :     0.013276  p :     0.021947
      px      :     0.002577
      py      :     0.006095
  8 H s       :     0.971543  s :     0.971543
      pz      :     0.008214  p :     0.022645
      px      :     0.004201
      py      :     0.010230
  9 H s       :     0.973285  s :     0.973285
      pz      :     0.005883  p :     0.022603
      px      :     0.005255
      py      :     0.011465
 10 H s       :     0.992711  s :     0.992711
      pz      :     0.003678  p :     0.020958
      px      :     0.005548
      py      :     0.011732
 11 H s       :     0.980857  s :     0.980857
      pz      :     0.006968  p :     0.020910
      px      :     0.004792
      py      :     0.009150
 12 H s       :     0.986117  s :     0.986117
      pz      :     0.012264  p :     0.021517
      px      :     0.004560
      py      :     0.004692
 13 H s       :     0.943553  s :     0.943553
      pz      :     0.012616  p :     0.023970
      px      :     0.005966
      py      :     0.005389
 14 H s       :     0.966467  s :     0.966467
      pz      :     0.005484  p :     0.023784
      px      :     0.006890
      py      :     0.011410
 15 H s       :     0.951658  s :     0.951658
      pz      :     0.005251  p :     0.023542
      px      :     0.013284
      py      :     0.005007
 16 H s       :     0.966540  s :     0.966540
      pz      :     0.012651  p :     0.023245
      px      :     0.004991
      py      :     0.005603
 17 H s       :     0.963958  s :     0.963958
      pz      :     0.012578  p :     0.023948
      px      :     0.005359
      py      :     0.006010
 18 H s       :     0.954754  s :     0.954754
      pz      :     0.005215  p :     0.024018
      px      :     0.006813
      py      :     0.011990


                     *******************************
                     * LOEWDIN POPULATION ANALYSIS *
                     *******************************

----------------------
LOEWDIN ATOMIC CHARGES
----------------------
   0 C :    0.050628
   1 O :   -0.146566
   2 C :    0.070026
   3 C :   -0.054559
   4 C :   -0.053915
   5 C :   -0.017405
   6 C :   -0.068721
   7 H :    0.022903
   8 H :    0.005618
   9 H :    0.004847
  10 H :    0.001530
  11 H :    0.005101
  12 H :    0.030480
  13 H :    0.028494
  14 H :    0.024800
  15 H :    0.027371
  16 H :    0.026947
  17 H :    0.019130
  18 H :    0.023291

-------------------------------
LOEWDIN REDUCED ORBITAL CHARGES
-------------------------------
  0 C s       :     2.845705  s :     2.845705
      pz      :     1.078882  p :     2.977694
      px      :     0.824693
      py      :     1.074119
      dz2     :     0.024132  d :     0.125972
      dxz     :     0.020307
      dyz     :     0.012155
      dx2y2   :     0.029874
      dxy     :     0.039504
  1 O s       :     3.460344  s :     3.460344
      pz      :     1.466017  p :     4.655823
      px      :     1.381345
      py      :     1.808461
      dz2     :     0.010297  d :     0.030398
      dxz     :     0.005952
      dyz     :     0.003799
      dx2y2   :     0.006832
      dxy     :     0.003519
  2 C s       :     2.847648  s :     2.847648
      pz      :     0.858906  p :     2.937036
      px      :     1.026858
      py      :     1.051272
      dz2     :     0.041101  d :     0.145290
      dxz     :     0.025236
      dyz     :     0.040356
      dx2y2   :     0.021586
      dxy     :     0.017010
  3 C s       :     2.839398  s :     2.839398
      pz      :     1.047933  p :     3.110685
      px      :     1.026516
      py      :     1.036235
      dz2     :     0.026011  d :     0.104475
      dxz     :     0.009318
      dyz     :     0.018973
      dx2y2   :     0.028208
      dxy     :     0.021965
  4 C s       :     2.838891  s :     2.838891
      pz      :     1.059413  p :     3.145995
      px      :     1.058872
      py      :     1.027710
      dz2     :     0.021471  d :     0.069029
      dxz     :     0.005418
      dyz     :     0.012133
      dx2y2   :     0.017962
      dxy     :     0.012045
  5 C s       :     2.877262  s :     2.877262
      pz      :     1.057090  p :     3.051370
      px      :     0.983760
      py      :     1.010520
      dz2     :     0.023110  d :     0.088773
      dxz     :     0.012067
      dyz     :     0.021824
      dx2y2   :     0.015604
      dxy     :     0.016168
  6 C s       :     2.883076  s :     2.883076
      pz      :     1.051848  p :     3.116733
      px      :     1.027294
      py      :     1.037591
      dz2     :     0.021433  d :     0.068911
      dxz     :     0.011132
      dyz     :     0.015307
      dx2y2   :     0.008995
      dxy     :     0.012045
  7 H s       :     0.912967  s :     0.912967
      pz      :     0.040072  p :     0.064129
      px      :     0.009285
      py      :     0.014773
  8 H s       :     0.928762  s :     0.928762
      pz      :     0.022919  p :     0.065620
      px      :     0.013870
      py      :     0.028832
  9 H s       :     0.929588  s :     0.929588
      pz      :     0.014031  p :     0.065564
      px      :     0.017528
      py      :     0.034005
 10 H s       :     0.932192  s :     0.932192
      pz      :     0.011909  p :     0.066279
      px      :     0.018396
      py      :     0.035974
 11 H s       :     0.928324  s :     0.928324
      pz      :     0.023956  p :     0.066575
      px      :     0.015956
      py      :     0.026662
 12 H s       :     0.902551  s :     0.902551
      pz      :     0.037356  p :     0.066970
      px      :     0.014536
      py      :     0.015078
 13 H s       :     0.903363  s :     0.903363
      pz      :     0.039029  p :     0.068143
      px      :     0.014465
      py      :     0.014649
 14 H s       :     0.908686  s :     0.908686
      pz      :     0.014372  p :     0.066514
      px      :     0.018083
      py      :     0.034059
 15 H s       :     0.905630  s :     0.905630
      pz      :     0.014054  p :     0.066999
      px      :     0.039761
      py      :     0.013184
 16 H s       :     0.903365  s :     0.903365
      pz      :     0.037570  p :     0.069688
      px      :     0.014386
      py      :     0.017732
 17 H s       :     0.911770  s :     0.911770
      pz      :     0.037090  p :     0.069100
      px      :     0.014941
      py      :     0.017068
 18 H s       :     0.907291  s :     0.907291
      pz      :     0.014207  p :     0.069419
      px      :     0.019565
      py      :     0.035647


                      *****************************
                      * MAYER POPULATION ANALYSIS *
                      *****************************

  NA   - Mulliken gross atomic population
  ZA   - Total nuclear charge
  QA   - Mulliken gross atomic charge
  VA   - Mayer's total valence
  BVA  - Mayer's bonded valence
  FA   - Mayer's free valence

  ATOM       NA         ZA         QA         VA         BVA        FA
  0 C      5.8503     6.0000     0.1497     3.9669     3.9669    -0.0000
  1 O      8.3494     8.0000    -0.3494     2.1650     2.1650    -0.0000
  2 C      5.7996     6.0000     0.2004     3.9928     3.9928    -0.0000
  3 C      6.0695     6.0000    -0.0695     4.0505     4.0505     0.0000
  4 C      5.9805     6.0000     0.0195     3.9573     3.9573     0.0000
  5 C      6.0464     6.0000    -0.0464     4.0631     4.0631     0.0000
  6 C      6.0322     6.0000    -0.0322     3.9438     3.9438     0.0000
  7 H      0.9694     1.0000     0.0306     0.9880     0.9880     0.0000
  8 H      0.9942     1.0000     0.0058     0.9875     0.9875    -0.0000
  9 H      0.9959     1.0000     0.0041     0.9872     0.9872    -0.0000
 10 H      1.0137     1.0000    -0.0137     0.9838     0.9838    -0.0000
 11 H      1.0018     1.0000    -0.0018     0.9847     0.9847    -0.0000
 12 H      1.0076     1.0000    -0.0076     0.9852     0.9852    -0.0000
 13 H      0.9675     1.0000     0.0325     1.0109     1.0109     0.0000
 14 H      0.9903     1.0000     0.0097     0.9916     0.9916     0.0000
 15 H      0.9752     1.0000     0.0248     0.9897     0.9897     0.0000
 16 H      0.9898     1.0000     0.0102     1.0009     1.0009     0.0000
 17 H      0.9879     1.0000     0.0121     0.9841     0.9841     0.0000
 18 H      0.9788     1.0000     0.0212     0.9734     0.9734    -0.0000

  Mayer bond orders larger than 0.1
B(  0-C ,  1-O ) :   1.0209 B(  0-C ,  7-H ) :   0.9761 B(  0-C ,  8-H ) :   0.9562 
B(  0-C ,  9-H ) :   0.9551 B(  1-O ,  2-C ) :   1.0249 B(  2-C ,  3-C ) :   1.0429 
B(  2-C , 10-H ) :   0.9194 B(  2-C , 11-H ) :   0.9250 B(  3-C ,  4-C ) :   1.0602 
B(  3-C ,  5-C ) :   1.0205 B(  3-C , 12-H ) :   0.8974 B(  4-C , 13-H ) :   0.9634 
B(  4-C , 14-H ) :   0.9558 B(  4-C , 15-H ) :   0.9643 B(  5-C ,  6-C ) :   2.0143 
B(  5-C , 16-H ) :   0.9556 B(  6-C , 17-H ) :   0.9440 B(  6-C , 18-H ) :   0.9435 



 *********************************** NBO 6.0 ***********************************
             N A T U R A L   A T O M I C   O R B I T A L   A N D
          N A T U R A L   B O N D   O R B I T A L   A N A L Y S I S
 ***************************** Kiya KiyaLu (100703) ****************************
  (c) Copyright 1996-2015 Board of Regents of the University of Wisconsin System
      on behalf of the Theoretical Chemistry Institute.  All rights reserved.

          Cite this program as:

          NBO 6.0.  E. D. Glendening, J. K. Badenhoop, A. E. Reed,
          J. E. Carpenter, J. A. Bohmann, C. M. Morales, C. R. Landis,
          and F. Weinhold (Theoretical Chemistry Institute, University
          of Wisconsin, Madison, WI, 2013); http://nbo6.chem.wisc.edu/

       /NPA    / : Natural Population Analysis
       /NBO    / : Natural Bond Orbital Analysis
       /AONBO  / : Write the AO to NBO transformation to lfn77
       /FILE   / : Set to 4180

 Filename set to 4180

 Job title:  *** NBO job generated by orca_scf

 Warning: MOs are non-orthogonal; program will continue

 Warning: -2039.08325 electrons reside outside the linearly independent MO space


 NATURAL POPULATIONS:  Natural atomic orbital occupancies

  NAO Atom No lang   Type(AO)    Occupancy      Energy
 -------------------------------------------------------
   1    C  1  s      Cor( 1s)     1.99924      -9.83636
   2    C  1  s      Val( 2s)     1.07806      -0.22536
   3    C  1  s      Ryd( 3s)     0.00163       0.75392
   4    C  1  px     Val( 2p)     0.76176      -0.06275
   5    C  1  px     Ryd( 3p)     0.00339       0.45550
   6    C  1  py     Val( 2p)     1.20046      -0.07321
   7    C  1  py     Ryd( 3p)     0.00048       0.52797
   8    C  1  pz     Val( 2p)     1.21373      -0.07724
   9    C  1  pz     Ryd( 3p)     0.00260       0.62749
  10    C  1  dxy    Ryd( 3d)     0.00169       2.16277
  11    C  1  dxz    Ryd( 3d)     0.00102       2.07290
  12    C  1  dyz    Ryd( 3d)     0.00044       2.19895
  13    C  1  dx2y2  Ryd( 3d)     0.00135       2.17072
  14    C  1  dz2    Ryd( 3d)     0.00092       2.29878

  15    O  2  s      Cor( 1s)     1.99969     -18.56500
  16    O  2  s      Val( 2s)     1.59975      -0.76294
  17    O  2  s      Ryd( 3s)     0.00136       1.46450
  18    O  2  px     Val( 2p)     1.50750      -0.26452
  19    O  2  px     Ryd( 3p)     0.00149       1.32011
  20    O  2  py     Val( 2p)     1.87760      -0.23480
  21    O  2  py     Ryd( 3p)     0.00201       1.15142
  22    O  2  pz     Val( 2p)     1.58191      -0.26321
  23    O  2  pz     Ryd( 3p)     0.00127       1.17981
  24    O  2  dxy    Ryd( 3d)     0.00062       2.66457
  25    O  2  dxz    Ryd( 3d)     0.00104       2.75426
  26    O  2  dyz    Ryd( 3d)     0.00079       2.72454
  27    O  2  dx2y2  Ryd( 3d)     0.00100       2.88745
  28    O  2  dz2    Ryd( 3d)     0.00138       2.97118

  29    C  3  s      Cor( 1s)     1.99903      -9.82493
  30    C  3  s      Val( 2s)     0.99093      -0.19619
  31    C  3  s      Ryd( 3s)     0.00353       0.79669
  32    C  3  px     Val( 2p)     1.06309      -0.07581
  33    C  3  px     Ryd( 3p)     0.00215       0.63932
  34    C  3  py     Val( 2p)     1.18506      -0.07162
  35    C  3  py     Ryd( 3p)     0.00367       0.73752
  36    C  3  pz     Val( 2p)     0.81007      -0.05946
  37    C  3  pz     Ryd( 3p)     0.00361       0.56563
  38    C  3  dxy    Ryd( 3d)     0.00072       2.15930
  39    C  3  dxz    Ryd( 3d)     0.00121       2.07671
  40    C  3  dyz    Ryd( 3d)     0.00164       2.23680
  41    C  3  dx2y2  Ryd( 3d)     0.00070       2.20597
  42    C  3  dz2    Ryd( 3d)     0.00169       2.20019

  43    C  4  s      Cor( 1s)     1.99892      -9.77321
  44    C  4  s      Val( 2s)     0.94689      -0.17056
  45    C  4  s      Ryd( 3s)     0.00129       0.90605
  46    C  4  px     Val( 2p)     1.06614      -0.07998
  47    C  4  px     Ryd( 3p)     0.00228       0.61506
  48    C  4  py     Val( 2p)     1.07956      -0.07451
  49    C  4  py     Ryd( 3p)     0.00237       0.61588
  50    C  4  pz     Val( 2p)     1.19036      -0.07062
  51    C  4  pz     Ryd( 3p)     0.00700       0.84275
  52    C  4  dxy    Ryd( 3d)     0.00078       2.10994
  53    C  4  dxz    Ryd( 3d)     0.00035       2.04557
  54    C  4  dyz    Ryd( 3d)     0.00060       2.18684
  55    C  4  dx2y2  Ryd( 3d)     0.00093       2.17611
  56    C  4  dz2    Ryd( 3d)     0.00089       2.36935

  57    C  5  s      Cor( 1s)     1.99919      -9.76384
  58    C  5  s      Val( 2s)     1.08341      -0.20335
  59    C  5  s      Ryd( 3s)     0.00100       0.83850
  60    C  5  px     Val( 2p)     1.21978      -0.05968
  61    C  5  px     Ryd( 3p)     0.00405       0.63953
  62    C  5  py     Val( 2p)     1.14831      -0.06011
  63    C  5  py     Ryd( 3p)     0.00223       0.56488
  64    C  5  pz     Val( 2p)     1.18532      -0.05810
  65    C  5  pz     Ryd( 3p)     0.00120       0.54285
  66    C  5  dxy    Ryd( 3d)     0.00040       2.19569
  67    C  5  dxz    Ryd( 3d)     0.00019       2.08971
  68    C  5  dyz    Ryd( 3d)     0.00037       2.17402
  69    C  5  dx2y2  Ryd( 3d)     0.00057       2.30866
  70    C  5  dz2    Ryd( 3d)     0.00073       2.38663

  71    C  6  s      Cor( 1s)     1.99890      -9.75843
  72    C  6  s      Val( 2s)     0.95340      -0.13694
  73    C  6  s      Ryd( 3s)     0.00413       0.59182
  74    C  6  px     Val( 2p)     1.02119      -0.07330
  75    C  6  px     Ryd( 3p)     0.00509       0.62829
  76    C  6  py     Val( 2p)     1.04844      -0.04424
  77    C  6  py     Ryd( 3p)     0.00389       0.69602
  78    C  6  pz     Val( 2p)     1.16840      -0.04262
  79    C  6  pz     Ryd( 3p)     0.00394       0.83539
  80    C  6  dxy    Ryd( 3d)     0.00052       2.15486
  81    C  6  dxz    Ryd( 3d)     0.00043       2.13414
  82    C  6  dyz    Ryd( 3d)     0.00076       2.24349
  83    C  6  dx2y2  Ryd( 3d)     0.00064       1.99850
  84    C  6  dz2    Ryd( 3d)     0.00062       2.24826

  85    C  7  s      Cor( 1s)     1.99891      -9.75622
  86    C  7  s      Val( 2s)     1.04052      -0.16242
  87    C  7  s      Ryd( 3s)     0.00052       0.53487
  88    C  7  px     Val( 2p)     1.06741      -0.07459
  89    C  7  px     Ryd( 3p)     0.00148       0.51198
  90    C  7  py     Val( 2p)     1.14547      -0.04211
  91    C  7  py     Ryd( 3p)     0.00309       0.70066
  92    C  7  pz     Val( 2p)     1.14739      -0.03352
  93    C  7  pz     Ryd( 3p)     0.00299       0.64821
  94    C  7  dxy    Ryd( 3d)     0.00044       2.15500
  95    C  7  dxz    Ryd( 3d)     0.00043       2.11761
  96    C  7  dyz    Ryd( 3d)     0.00059       2.22579
  97    C  7  dx2y2  Ryd( 3d)     0.00044       1.99657
  98    C  7  dz2    Ryd( 3d)     0.00055       2.24833

  99    H  8  s      Val( 1s)     0.79102       0.06140
 100    H  8  s      Ryd( 2s)     0.00103       0.30070
 101    H  8  px     Ryd( 2p)     0.00007       1.64521
 102    H  8  py     Ryd( 2p)     0.00022       1.71070
 103    H  8  pz     Ryd( 2p)     0.00085       2.23298

 104    H  9  s      Val( 1s)     0.81980       0.04194
 105    H  9  s      Ryd( 2s)     0.00331       0.33643
 106    H  9  px     Ryd( 2p)     0.00019       1.73526
 107    H  9  py     Ryd( 2p)     0.00054       2.01918
 108    H  9  pz     Ryd( 2p)     0.00041       1.91477

 109    H 10  s      Val( 1s)     0.82090       0.04058
 110    H 10  s      Ryd( 2s)     0.00338       0.33439
 111    H 10  px     Ryd( 2p)     0.00026       1.80567
 112    H 10  py     Ryd( 2p)     0.00069       2.10615
 113    H 10  pz     Ryd( 2p)     0.00021       1.74225

 114    H 11  s      Val( 1s)     0.81021       0.05079
 115    H 11  s      Ryd( 2s)     0.00421       0.35364
 116    H 11  px     Ryd( 2p)     0.00024       1.85325
 117    H 11  py     Ryd( 2p)     0.00075       2.14130
 118    H 11  pz     Ryd( 2p)     0.00015       1.79771

 119    H 12  s      Val( 1s)     0.80424       0.05815
 120    H 12  s      Ryd( 2s)     0.00413       0.35297
 121    H 12  px     Ryd( 2p)     0.00018       1.81412
 122    H 12  py     Ryd( 2p)     0.00056       2.01126
 123    H 12  pz     Ryd( 2p)     0.00040       1.97068

 124    H 13  s      Val( 1s)     0.75592       0.07788
 125    H 13  s      Ryd( 2s)     0.00335       0.35932
 126    H 13  px     Ryd( 2p)     0.00013       1.73410
 127    H 13  py     Ryd( 2p)     0.00015       1.77898
 128    H 13  pz     Ryd( 2p)     0.00087       2.19641

 129    H 14  s      Val( 1s)     0.76637       0.08394
 130    H 14  s      Ryd( 2s)     0.00277       0.36661
 131    H 14  px     Ryd( 2p)     0.00019       1.75981
 132    H 14  py     Ryd( 2p)     0.00016       1.74861
 133    H 14  pz     Ryd( 2p)     0.00080       2.25535

 134    H 15  s      Val( 1s)     0.77574       0.07179
 135    H 15  s      Ryd( 2s)     0.00167       0.34923
 136    H 15  px     Ryd( 2p)     0.00026       1.85174
 137    H 15  py     Ryd( 2p)     0.00066       2.18119
 138    H 15  pz     Ryd( 2p)     0.00017       1.73104

 139    H 16  s      Val( 1s)     0.76961       0.07974
 140    H 16  s      Ryd( 2s)     0.00154       0.34481
 141    H 16  px     Ryd( 2p)     0.00085       2.29455
 142    H 16  py     Ryd( 2p)     0.00012       1.72285
 143    H 16  pz     Ryd( 2p)     0.00014       1.71656

 144    H 17  s      Val( 1s)     0.77340       0.08950
 145    H 17  s      Ryd( 2s)     0.00365       0.34744
 146    H 17  px     Ryd( 2p)     0.00019       1.72843
 147    H 17  py     Ryd( 2p)     0.00023       1.88884
 148    H 17  pz     Ryd( 2p)     0.00084       2.21010

 149    H 18  s      Val( 1s)     0.80045       0.06777
 150    H 18  s      Ryd( 2s)     0.00214       0.33340
 151    H 18  px     Ryd( 2p)     0.00020       1.67577
 152    H 18  py     Ryd( 2p)     0.00023       1.80154
 153    H 18  pz     Ryd( 2p)     0.00076       2.23042

 154    H 19  s      Val( 1s)     0.78868       0.07661
 155    H 19  s      Ryd( 2s)     0.00161       0.31777
 156    H 19  px     Ryd( 2p)     0.00032       1.77765
 157    H 19  py     Ryd( 2p)     0.00071       2.17606
 158    H 19  pz     Ryd( 2p)     0.00016       1.78398

   1 low occupancy (<1.9990e) core orbital  found on  C  4
   1 low occupancy (<1.9990e) core orbital  found on  C  6
   1 low occupancy (<1.9990e) core orbital  found on  C  7


 Summary of Natural Population Analysis:

                                     Natural Population
             Natural    ---------------------------------------------
  Atom No    Charge        Core      Valence    Rydberg      Total
 --------------------------------------------------------------------
    C  1   -0.26678      1.99924     4.25401    0.01353     6.26678
    O  2   -0.57740      1.99969     6.56676    0.01096     8.57740
    C  3   -0.06710      1.99903     4.04916    0.01891     6.06710
    C  4   -0.29836      1.99892     4.28294    0.01650     6.29836
    C  5   -0.64677      1.99919     4.63683    0.01075     6.64677
    C  6   -0.21037      1.99890     4.19144    0.02003     6.21037
    C  7   -0.41022      1.99891     4.40078    0.01053     6.41022
    H  8    0.20681      0.00000     0.79102    0.00217     0.79319
    H  9    0.17575      0.00000     0.81980    0.00445     0.82425
    H 10    0.17455      0.00000     0.82090    0.00454     0.82545
    H 11    0.18443      0.00000     0.81021    0.00536     0.81557
    H 12    0.19049      0.00000     0.80424    0.00527     0.80951
    H 13    0.23960      0.00000     0.75592    0.00449     0.76040
    H 14    0.22971      0.00000     0.76637    0.00392     0.77029
    H 15    0.22150      0.00000     0.77574    0.00276     0.77850
    H 16    0.22775      0.00000     0.76961    0.00265     0.77225
    H 17    0.22169      0.00000     0.77340    0.00491     0.77831
    H 18    0.19621      0.00000     0.80045    0.00334     0.80379
    H 19    0.20852      0.00000     0.78868    0.00280     0.79148
 ====================================================================
 * Total *  0.00000     13.99387    41.85824    0.14788    56.00000

                                 Natural Population
 ---------------------------------------------------------
   Core                      13.99387 ( 99.9562% of   14)
   Valence                   41.85824 ( 99.6625% of   42)
   Natural Minimal Basis     55.85212 ( 99.7359% of   56)
   Natural Rydberg Basis      0.14788 (  0.2641% of   56)
 ---------------------------------------------------------

    Atom No         Natural Electron Configuration
 ----------------------------------------------------------------------------
      C  1      [core]2s( 1.08)2p( 3.18)3p( 0.01)3d( 0.01)
      O  2      [core]2s( 1.60)2p( 4.97)
      C  3      [core]2s( 0.99)2p( 3.06)3p( 0.01)3d( 0.01)
      C  4      [core]2s( 0.95)2p( 3.34)3p( 0.01)
      C  5      [core]2s( 1.08)2p( 3.55)3p( 0.01)
      C  6      [core]2s( 0.95)2p( 3.24)3p( 0.01)
      C  7      [core]2s( 1.04)2p( 3.36)3p( 0.01)
      H  8            1s( 0.79)
      H  9            1s( 0.82)
      H 10            1s( 0.82)
      H 11            1s( 0.81)
      H 12            1s( 0.80)
      H 13            1s( 0.76)
      H 14            1s( 0.77)
      H 15            1s( 0.78)
      H 16            1s( 0.77)
      H 17            1s( 0.77)
      H 18            1s( 0.80)
      H 19            1s( 0.79)


 NATURAL BOND ORBITAL ANALYSIS:

                            Occupancies       Lewis Structure    Low   High
         Max    Occ     -------------------  -----------------   occ   occ
  Cycle  Ctr   Thresh    Lewis   non-Lewis     CR  BD  nC  LP    (L)   (NL)
 ============================================================================
    1     2     1.90    55.51856   0.48144      7  19   0   2     0      0
 ----------------------------------------------------------------------------

 Structure accepted: No low occupancy Lewis orbitals

 -------------------------------------------------------
   Core                     13.99387 ( 99.956% of  14)
   Valence Lewis            41.52469 ( 98.868% of  42)
  ==================      =============================
   Total Lewis              55.51856 ( 99.140% of  56)
  -----------------------------------------------------
   Valence non-Lewis         0.37549 (  0.671% of  56)
   Rydberg non-Lewis         0.10595 (  0.189% of  56)
  ==================      =============================
   Total non-Lewis           0.48144 (  0.860% of  56)
 -------------------------------------------------------


     (Occupancy)   Bond orbital / Coefficients / Hybrids
 ------------------ Lewis ------------------------------------------------------
   1. (1.99924) CR ( 1) C  1            s(100.00%)
                                         1.0000  0.0000  0.0000  0.0000  0.0000
                                         0.0000  0.0000  0.0000  0.0000  0.0000
                                         0.0000  0.0000  0.0000  0.0000
   2. (1.99969) CR ( 1) O  2            s(100.00%)
                                         1.0000  0.0000  0.0000  0.0000  0.0000
                                         0.0000  0.0000  0.0000  0.0000  0.0000
                                         0.0000  0.0000  0.0000  0.0000
   3. (1.99903) CR ( 1) C  3            s(100.00%)
                                         1.0000  0.0000  0.0000  0.0000  0.0000
                                         0.0000  0.0000  0.0000  0.0000  0.0000
                                         0.0000  0.0000  0.0000  0.0000
   4. (1.99892) CR ( 1) C  4            s(100.00%)
                                         1.0000  0.0000  0.0000  0.0000  0.0000
                                         0.0000  0.0000  0.0000  0.0000  0.0000
                                         0.0000  0.0000  0.0000  0.0000
   5. (1.99919) CR ( 1) C  5            s(100.00%)
                                         1.0000  0.0000  0.0000  0.0000  0.0000
                                         0.0000  0.0000  0.0000  0.0000  0.0000
                                         0.0000  0.0000  0.0000  0.0000
   6. (1.99890) CR ( 1) C  6            s(100.00%)
                                         1.0000  0.0000  0.0000  0.0000  0.0000
                                         0.0000  0.0000  0.0000  0.0000  0.0000
                                         0.0000  0.0000  0.0000  0.0000
   7. (1.99891) CR ( 1) C  7            s(100.00%)
                                         1.0000  0.0000  0.0000  0.0000  0.0000
                                         0.0000  0.0000  0.0000  0.0000  0.0000
                                         0.0000  0.0000  0.0000  0.0000
   8. (1.95737) LP ( 1) O  2            s( 41.60%)p 1.40( 58.36%)d 0.00(  0.04%)
                                         0.0000  0.6449 -0.0095  0.5012 -0.0063
                                        -0.0891  0.0001  0.5696 -0.0035  0.0036
                                        -0.0186  0.0020 -0.0047 -0.0057
   9. (1.90684) LP ( 2) O  2            s(  0.00%)p 1.00( 99.94%)d 0.00(  0.05%)
                                         0.0000  0.0065  0.0002  0.0823 -0.0002
                                        -0.9691  0.0070 -0.2314  0.0013  0.0149
                                         0.0021  0.0155  0.0016  0.0068
  10. (1.99115) BD ( 1) C  1- O  2
               ( 32.31%)   0.5684* C  1 s( 22.04%)p 3.53( 77.72%)d 0.01(  0.24%)
                                         0.0000  0.4689  0.0246  0.8668  0.0487
                                         0.0966 -0.0033 -0.1149  0.0286  0.0095
                                        -0.0121 -0.0016  0.0404 -0.0226
               ( 67.69%)   0.8227* O  2 s( 28.45%)p 2.51( 71.47%)d 0.00(  0.09%)
                                         0.0000  0.5332  0.0123 -0.8320 -0.0068
                                        -0.0944 -0.0056  0.1141  0.0206  0.0024
                                         0.0067 -0.0006  0.0256 -0.0124
  11. (1.99067) BD ( 1) C  1- H  8
               ( 60.54%)   0.7781* C  1 s( 25.61%)p 2.90( 74.35%)d 0.00(  0.04%)
                                         0.0000  0.5059  0.0130 -0.1409  0.0090
                                        -0.2090  0.0043  0.8244 -0.0143  0.0006
                                        -0.0035 -0.0074 -0.0028  0.0180
               ( 39.46%)   0.6282* H  8 s( 99.90%)p 0.00(  0.10%)
                                         0.9995 -0.0015  0.0062  0.0078 -0.0306
  12. (1.99657) BD ( 1) C  1- H  9
               ( 59.70%)   0.7726* C  1 s( 26.21%)p 2.81( 73.75%)d 0.00(  0.04%)
                                         0.0000  0.5118 -0.0127 -0.2748 -0.0130
                                        -0.6263 -0.0019 -0.5190  0.0145  0.0086
                                         0.0074  0.0152 -0.0083  0.0020
               ( 40.30%)   0.6348* H  9 s( 99.91%)p 0.00(  0.09%)
                                         0.9995 -0.0075  0.0110  0.0226  0.0171
  13. (1.99641) BD ( 1) C  1- H 10
               ( 59.64%)   0.7723* C  1 s( 26.17%)p 2.82( 73.78%)d 0.00(  0.04%)
                                         0.0000  0.5114 -0.0128 -0.3837 -0.0131
                                         0.7444 -0.0074 -0.1900  0.0138 -0.0143
                                         0.0037 -0.0068 -0.0103 -0.0076
               ( 40.36%)   0.6353* H 10 s( 99.91%)p 0.00(  0.09%)
                                         0.9995 -0.0076  0.0151 -0.0262  0.0055
  14. (1.98902) BD ( 1) O  2- C  3
               ( 67.92%)   0.8241* O  2 s( 29.94%)p 2.34( 69.97%)d 0.00(  0.08%)
                                         0.0000  0.5472  0.0058  0.2195  0.0092
                                         0.2085  0.0026 -0.7797 -0.0069  0.0004
                                         0.0002 -0.0119  0.0011  0.0258
               ( 32.08%)   0.5664* C  3 s( 20.55%)p 3.85( 79.22%)d 0.01(  0.23%)
                                         0.0000  0.4524  0.0288 -0.2421  0.0037
                                        -0.2217 -0.0099  0.8261  0.0428  0.0060
                                        -0.0218 -0.0194  0.0014  0.0380
  15. (1.96448) BD ( 1) C  3- C  4
               ( 49.10%)   0.7007* C  3 s( 30.64%)p 2.26( 69.32%)d 0.00(  0.04%)
                                         0.0000  0.5535  0.0089  0.8286 -0.0208
                                         0.0658  0.0022 -0.0420 -0.0068  0.0019
                                         0.0014  0.0002  0.0166 -0.0099
               ( 50.90%)   0.7135* C  4 s( 25.94%)p 2.85( 74.02%)d 0.00(  0.04%)
                                         0.0000  0.5093  0.0064 -0.8548 -0.0070
                                        -0.0701  0.0040  0.0645 -0.0223  0.0041
                                        -0.0040 -0.0001  0.0150 -0.0101
  16. (1.98447) BD ( 1) C  3- H 11
               ( 60.16%)   0.7756* C  3 s( 24.27%)p 3.12( 75.69%)d 0.00(  0.04%)
                                         0.0000  0.4925 -0.0095 -0.3979 -0.0008
                                         0.7515 -0.0088 -0.1833 -0.0106 -0.0130
                                         0.0036 -0.0065 -0.0099 -0.0102
               ( 39.84%)   0.6312* H 11 s( 99.89%)p 0.00(  0.11%)
                                         0.9994 -0.0093  0.0133 -0.0286  0.0086
  17. (1.98575) BD ( 1) C  3- H 12
               ( 60.43%)   0.7774* C  3 s( 24.62%)p 3.06( 75.34%)d 0.00(  0.04%)
                                         0.0000  0.4960 -0.0104 -0.3089 -0.0007
                                        -0.6170  0.0126 -0.5264 -0.0054  0.0081
                                         0.0073  0.0163 -0.0064  0.0003
               ( 39.57%)   0.6290* H 12 s( 99.89%)p 0.00(  0.11%)
                                         0.9994 -0.0087  0.0094  0.0227  0.0212
  18. (1.96887) BD ( 1) C  4- C  5
               ( 51.32%)   0.7164* C  4 s( 26.31%)p 2.80( 73.66%)d 0.00(  0.03%)
                                         0.0000  0.5129  0.0053  0.2945  0.0120
                                         0.6163  0.0123  0.5191 -0.0161  0.0061
                                         0.0067  0.0140 -0.0048  0.0017
               ( 48.68%)   0.6977* C  5 s( 30.04%)p 2.33( 69.92%)d 0.00(  0.04%)
                                         0.0000  0.5481 -0.0026 -0.2886  0.0058
                                        -0.5946  0.0091 -0.5120 -0.0073  0.0080
                                         0.0071  0.0143 -0.0064  0.0012
  19. (1.96677) BD ( 1) C  4- C  6
               ( 51.21%)   0.7156* C  4 s( 27.20%)p 2.67( 72.76%)d 0.00(  0.04%)
                                         0.0000  0.5215  0.0016  0.3834  0.0042
                                        -0.7464 -0.0006  0.1533 -0.0047 -0.0115
                                         0.0033 -0.0066 -0.0101 -0.0088
               ( 48.79%)   0.6985* C  6 s( 33.64%)p 1.97( 66.32%)d 0.00(  0.04%)
                                         0.0000  0.5799 -0.0106 -0.3680  0.0066
                                         0.7111 -0.0107 -0.1483  0.0045 -0.0143
                                         0.0010 -0.0076 -0.0103 -0.0063
  20. (1.96021) BD ( 1) C  4- H 13
               ( 62.11%)   0.7881* C  4 s( 20.53%)p 3.87( 79.44%)d 0.00(  0.03%)
                                         0.0000  0.4530 -0.0102  0.1865 -0.0020
                                         0.2400  0.0025 -0.8378  0.0125  0.0009
                                        -0.0040 -0.0073 -0.0005  0.0158
               ( 37.89%)   0.6155* H 13 s( 99.88%)p 0.00(  0.12%)
                                         0.9994 -0.0050 -0.0079 -0.0093  0.0328
  21. (1.98747) BD ( 1) C  5- H 14
               ( 61.70%)   0.7855* C  5 s( 23.49%)p 3.26( 76.48%)d 0.00(  0.03%)
                                         0.0000  0.4846 -0.0018 -0.1541  0.0062
                                        -0.1993  0.0152  0.8372  0.0066  0.0019
                                        -0.0059 -0.0077 -0.0008  0.0155
               ( 38.30%)   0.6189* H 14 s( 99.89%)p 0.00(  0.11%)
                                         0.9995 -0.0031  0.0065  0.0068 -0.0315
  22. (1.98568) BD ( 1) C  5- H 15
               ( 61.13%)   0.7819* C  5 s( 23.01%)p 3.34( 76.95%)d 0.00(  0.04%)
                                         0.0000  0.4797  0.0029 -0.3845  0.0119
                                         0.7708  0.0070 -0.1651  0.0102 -0.0134
                                         0.0037 -0.0062 -0.0089 -0.0084
               ( 38.87%)   0.6234* H 15 s( 99.91%)p 0.00(  0.09%)
                                         0.9995 -0.0014  0.0124 -0.0277  0.0045
  23. (1.98711) BD ( 1) C  5- H 16
               ( 61.44%)   0.7838* C  5 s( 23.39%)p 3.27( 76.57%)d 0.00(  0.04%)
                                         0.0000  0.4837  0.0030  0.8629 -0.0022
                                         0.1089  0.0119 -0.0953  0.0087  0.0029
                                        -0.0045 -0.0003  0.0155 -0.0091
               ( 38.56%)   0.6210* H 16 s( 99.90%)p 0.00(  0.10%)
                                         0.9995 -0.0009 -0.0317 -0.0039  0.0027
  24. (1.98643) BD ( 1) C  6- C  7
               ( 50.98%)   0.7140* C  6 s( 39.36%)p 1.54( 60.59%)d 0.00(  0.05%)
                                         0.0000  0.6265  0.0327  0.4382  0.0216
                                        -0.3906 -0.0325 -0.5097 -0.0054 -0.0120
                                        -0.0153  0.0116  0.0008  0.0040
               ( 49.02%)   0.7001* C  7 s( 41.58%)p 1.40( 58.36%)d 0.00(  0.07%)
                                         0.0000  0.6447  0.0121 -0.4594 -0.0084
                                         0.3614  0.0020  0.4913  0.0205 -0.0143
                                        -0.0175  0.0117  0.0011  0.0042
  25. (1.97949) BD ( 2) C  6- C  7
               ( 48.86%)   0.6990* C  6 s(  0.01%)p99.99( 99.92%)d 4.28(  0.06%)
                                         0.0000  0.0121  0.0008  0.8075 -0.0220
                                         0.4795 -0.0090  0.3415 -0.0073 -0.0019
                                        -0.0092 -0.0123  0.0167 -0.0104
               ( 51.14%)   0.7151* C  7 s(  0.01%)p99.99( 99.93%)d 4.10(  0.06%)
                                         0.0000  0.0116  0.0016  0.7905 -0.0226
                                         0.4933 -0.0106  0.3611 -0.0073  0.0023
                                         0.0070  0.0119 -0.0167  0.0093
  26. (1.97263) BD ( 1) C  6- H 17
               ( 61.47%)   0.7840* C  6 s( 26.97%)p 2.71( 73.00%)d 0.00(  0.03%)
                                         0.0000  0.5190 -0.0197 -0.1374  0.0044
                                        -0.3333 -0.0071  0.7746 -0.0034  0.0008
                                        -0.0043 -0.0108 -0.0026  0.0125
               ( 38.53%)   0.6208* H 17 s( 99.89%)p 0.00(  0.11%)
                                         0.9994 -0.0052  0.0060  0.0136 -0.0304
  27. (1.98419) BD ( 1) C  7- H 18
               ( 60.04%)   0.7748* C  7 s( 29.14%)p 2.43( 70.82%)d 0.00(  0.04%)
                                         0.0000  0.5398 -0.0088  0.1617  0.0137
                                         0.2932 -0.0156 -0.7717 -0.0105  0.0009
                                        -0.0047 -0.0124 -0.0030  0.0138
               ( 39.96%)   0.6322* H 18 s( 99.90%)p 0.00(  0.10%)
                                         0.9995 -0.0034 -0.0058 -0.0111  0.0284
  28. (1.98309) BD ( 1) C  7- H 19
               ( 60.49%)   0.7777* C  7 s( 29.23%)p 2.42( 70.73%)d 0.00(  0.04%)
                                         0.0000  0.5407 -0.0022  0.3695  0.0062
                                        -0.7343 -0.0016  0.1769 -0.0129 -0.0121
                                         0.0031 -0.0085 -0.0101 -0.0066
               ( 39.51%)   0.6286* H 19 s( 99.90%)p 0.00(  0.10%)
                                         0.9995 -0.0018 -0.0132  0.0269 -0.0074
 ---------------- non-Lewis ----------------------------------------------------
  29. (0.00597) BD*( 1) C  1- O  2
               ( 67.69%)   0.8227* C  1 s( 22.04%)p 3.53( 77.72%)d 0.01(  0.24%)
                                         0.0000  0.4689  0.0246  0.8668  0.0487
                                         0.0966 -0.0033 -0.1149  0.0286  0.0095
                                        -0.0121 -0.0016  0.0404 -0.0226
               ( 32.31%)  -0.5684* O  2 s( 28.45%)p 2.51( 71.47%)d 0.00(  0.09%)
                                         0.0000  0.5332  0.0123 -0.8320 -0.0068
                                        -0.0944 -0.0056  0.1141  0.0206  0.0024
                                         0.0067 -0.0006  0.0256 -0.0124
  30. (0.01050) BD*( 1) C  1- H  8
               ( 39.46%)   0.6282* C  1 s( 25.61%)p 2.90( 74.35%)d 0.00(  0.04%)
                                         0.0000 -0.5059 -0.0130  0.1409 -0.0090
                                         0.2090 -0.0043 -0.8244  0.0143 -0.0006
                                         0.0035  0.0074  0.0028 -0.0180
               ( 60.54%)  -0.7781* H  8 s( 99.90%)p 0.00(  0.10%)
                                        -0.9995  0.0015 -0.0062 -0.0078  0.0306
  31. (0.02654) BD*( 1) C  1- H  9
               ( 40.30%)   0.6348* C  1 s( 26.21%)p 2.81( 73.75%)d 0.00(  0.04%)
                                         0.0000 -0.5118  0.0127  0.2748  0.0130
                                         0.6263  0.0019  0.5190 -0.0145 -0.0086
                                        -0.0074 -0.0152  0.0083 -0.0020
               ( 59.70%)  -0.7726* H  9 s( 99.91%)p 0.00(  0.09%)
                                        -0.9995  0.0075 -0.0110 -0.0226 -0.0171
  32. (0.02677) BD*( 1) C  1- H 10
               ( 40.36%)   0.6353* C  1 s( 26.17%)p 2.82( 73.78%)d 0.00(  0.04%)
                                         0.0000 -0.5114  0.0128  0.3837  0.0131
                                        -0.7444  0.0074  0.1900 -0.0138  0.0143
                                        -0.0037  0.0068  0.0103  0.0076
               ( 59.64%)  -0.7723* H 10 s( 99.91%)p 0.00(  0.09%)
                                        -0.9995  0.0076 -0.0151  0.0262 -0.0055
  33. (0.02318) BD*( 1) O  2- C  3
               ( 32.08%)   0.5664* O  2 s( 29.94%)p 2.34( 69.97%)d 0.00(  0.08%)
                                         0.0000 -0.5472 -0.0058 -0.2195 -0.0092
                                        -0.2085 -0.0026  0.7797  0.0069 -0.0004
                                        -0.0002  0.0119 -0.0011 -0.0258
               ( 67.92%)  -0.8241* C  3 s( 20.55%)p 3.85( 79.22%)d 0.01(  0.23%)
                                         0.0000 -0.4524 -0.0288  0.2421 -0.0037
                                         0.2217  0.0099 -0.8261 -0.0428 -0.0060
                                         0.0218  0.0194 -0.0014 -0.0380
  34. (0.03129) BD*( 1) C  3- C  4
               ( 50.90%)   0.7135* C  3 s( 30.64%)p 2.26( 69.32%)d 0.00(  0.04%)
                                         0.0000  0.5535  0.0089  0.8286 -0.0208
                                         0.0658  0.0022 -0.0420 -0.0068  0.0019
                                         0.0014  0.0002  0.0166 -0.0099
               ( 49.10%)  -0.7007* C  4 s( 25.94%)p 2.85( 74.02%)d 0.00(  0.04%)
                                         0.0000  0.5093  0.0064 -0.8548 -0.0070
                                        -0.0701  0.0040  0.0645 -0.0223  0.0041
                                        -0.0040 -0.0001  0.0150 -0.0101
  35. (0.03400) BD*( 1) C  3- H 11
               ( 39.84%)   0.6312* C  3 s( 24.27%)p 3.12( 75.69%)d 0.00(  0.04%)
                                         0.0000 -0.4925  0.0095  0.3979  0.0008
                                        -0.7515  0.0088  0.1833  0.0106  0.0130
                                        -0.0036  0.0065  0.0099  0.0102
               ( 60.16%)  -0.7756* H 11 s( 99.89%)p 0.00(  0.11%)
                                        -0.9994  0.0093 -0.0133  0.0286 -0.0086
  36. (0.03194) BD*( 1) C  3- H 12
               ( 39.57%)   0.6290* C  3 s( 24.62%)p 3.06( 75.34%)d 0.00(  0.04%)
                                         0.0000 -0.4960  0.0104  0.3089  0.0007
                                         0.6170 -0.0126  0.5264  0.0054 -0.0081
                                        -0.0073 -0.0163  0.0064 -0.0003
               ( 60.43%)  -0.7774* H 12 s( 99.89%)p 0.00(  0.11%)
                                        -0.9994  0.0087 -0.0094 -0.0227 -0.0212
  37. (0.02131) BD*( 1) C  4- C  5
               ( 48.68%)   0.6977* C  4 s( 26.31%)p 2.80( 73.66%)d 0.00(  0.03%)
                                         0.0000 -0.5129 -0.0053 -0.2945 -0.0120
                                        -0.6163 -0.0123 -0.5191  0.0161 -0.0061
                                        -0.0067 -0.0140  0.0048 -0.0017
               ( 51.32%)  -0.7164* C  5 s( 30.04%)p 2.33( 69.92%)d 0.00(  0.04%)
                                         0.0000 -0.5481  0.0026  0.2886 -0.0058
                                         0.5946 -0.0091  0.5120  0.0073 -0.0080
                                        -0.0071 -0.0143  0.0064 -0.0012
  38. (0.03221) BD*( 1) C  4- C  6
               ( 48.79%)   0.6985* C  4 s( 27.20%)p 2.67( 72.76%)d 0.00(  0.04%)
                                         0.0000 -0.5215 -0.0016 -0.3834 -0.0042
                                         0.7464  0.0006 -0.1533  0.0047  0.0115
                                        -0.0033  0.0066  0.0101  0.0088
               ( 51.21%)  -0.7156* C  6 s( 33.64%)p 1.97( 66.32%)d 0.00(  0.04%)
                                         0.0000 -0.5799  0.0106  0.3680 -0.0066
                                        -0.7111  0.0107  0.1483 -0.0045  0.0143
                                        -0.0010  0.0076  0.0103  0.0063
  39. (0.02286) BD*( 1) C  4- H 13
               ( 37.89%)   0.6155* C  4 s( 20.53%)p 3.87( 79.44%)d 0.00(  0.03%)
                                         0.0000 -0.4530  0.0102 -0.1865  0.0020
                                        -0.2400 -0.0025  0.8378 -0.0125 -0.0009
                                         0.0040  0.0073  0.0005 -0.0158
               ( 62.11%)  -0.7881* H 13 s( 99.88%)p 0.00(  0.12%)
                                        -0.9994  0.0050  0.0079  0.0093 -0.0328
  40. (0.00974) BD*( 1) C  5- H 14
               ( 38.30%)   0.6189* C  5 s( 23.49%)p 3.26( 76.48%)d 0.00(  0.03%)
                                         0.0000 -0.4846  0.0018  0.1541 -0.0062
                                         0.1993 -0.0152 -0.8372 -0.0066 -0.0019
                                         0.0059  0.0077  0.0008 -0.0155
               ( 61.70%)  -0.7855* H 14 s( 99.89%)p 0.00(  0.11%)
                                        -0.9995  0.0031 -0.0065 -0.0068  0.0315
  41. (0.00768) BD*( 1) C  5- H 15
               ( 38.87%)   0.6234* C  5 s( 23.01%)p 3.34( 76.95%)d 0.00(  0.04%)
                                         0.0000 -0.4797 -0.0029  0.3845 -0.0119
                                        -0.7708 -0.0070  0.1651 -0.0102  0.0134
                                        -0.0037  0.0062  0.0089  0.0084
               ( 61.13%)  -0.7819* H 15 s( 99.91%)p 0.00(  0.09%)
                                        -0.9995  0.0014 -0.0124  0.0277 -0.0045
  42. (0.00664) BD*( 1) C  5- H 16
               ( 38.56%)   0.6210* C  5 s( 23.39%)p 3.27( 76.57%)d 0.00(  0.04%)
                                         0.0000 -0.4837 -0.0030 -0.8629  0.0022
                                        -0.1089 -0.0119  0.0953 -0.0087 -0.0029
                                         0.0045  0.0003 -0.0155  0.0091
               ( 61.44%)  -0.7838* H 16 s( 99.90%)p 0.00(  0.10%)
                                        -0.9995  0.0009  0.0317  0.0039 -0.0027
  43. (0.00940) BD*( 1) C  6- C  7
               ( 49.02%)   0.7001* C  6 s( 39.36%)p 1.54( 60.59%)d 0.00(  0.05%)
                                         0.0000 -0.6265 -0.0327 -0.4382 -0.0216
                                         0.3906  0.0325  0.5097  0.0054  0.0120
                                         0.0153 -0.0116 -0.0008 -0.0040
               ( 50.98%)  -0.7140* C  7 s( 41.58%)p 1.40( 58.36%)d 0.00(  0.07%)
                                         0.0000 -0.6447 -0.0121  0.4594  0.0084
                                        -0.3614 -0.0020 -0.4913 -0.0205  0.0143
                                         0.0175 -0.0117 -0.0011 -0.0042
  44. (0.02895) BD*( 2) C  6- C  7
               ( 51.14%)   0.7151* C  6 s(  0.01%)p99.99( 99.92%)d 4.28(  0.06%)
                                         0.0000  0.0121  0.0008  0.8075 -0.0220
                                         0.4795 -0.0090  0.3415 -0.0073 -0.0019
                                        -0.0092 -0.0123  0.0167 -0.0104
               ( 48.86%)  -0.6990* C  7 s(  0.01%)p99.99( 99.93%)d 4.10(  0.06%)
                                         0.0000  0.0116  0.0016  0.7905 -0.0226
                                         0.4933 -0.0106  0.3611 -0.0073  0.0023
                                         0.0070  0.0119 -0.0167  0.0093
  45. (0.02301) BD*( 1) C  6- H 17
               ( 38.53%)   0.6208* C  6 s( 26.97%)p 2.71( 73.00%)d 0.00(  0.03%)
                                         0.0000 -0.5190  0.0197  0.1374 -0.0044
                                         0.3333  0.0071 -0.7746  0.0034 -0.0008
                                         0.0043  0.0108  0.0026 -0.0125
               ( 61.47%)  -0.7840* H 17 s( 99.89%)p 0.00(  0.11%)
                                        -0.9994  0.0052 -0.0060 -0.0136  0.0304
  46. (0.01381) BD*( 1) C  7- H 18
               ( 39.96%)   0.6322* C  7 s( 29.14%)p 2.43( 70.82%)d 0.00(  0.04%)
                                         0.0000 -0.5398  0.0088 -0.1617 -0.0137
                                        -0.2932  0.0156  0.7717  0.0105 -0.0009
                                         0.0047  0.0124  0.0030 -0.0138
               ( 60.04%)  -0.7748* H 18 s( 99.90%)p 0.00(  0.10%)
                                        -0.9995  0.0034  0.0058  0.0111 -0.0284
  47. (0.00969) BD*( 1) C  7- H 19
               ( 39.51%)   0.6286* C  7 s( 29.23%)p 2.42( 70.73%)d 0.00(  0.04%)
                                         0.0000 -0.5407  0.0022 -0.3695 -0.0062
                                         0.7343  0.0016 -0.1769  0.0129  0.0121
                                        -0.0031  0.0085  0.0101  0.0066
               ( 60.49%)  -0.7777* H 19 s( 99.90%)p 0.00(  0.10%)
                                        -0.9995  0.0018  0.0132 -0.0269  0.0074
  48. (0.00300) RY ( 1) C  1            s( 24.64%)p 1.83( 45.14%)d 1.23( 30.22%)
                                         0.0000 -0.0030  0.4964 -0.0377  0.5701
                                         0.0047  0.1222 -0.0312 -0.3301  0.0980
                                        -0.4940 -0.1013 -0.0799  0.1786
  49. (0.00164) RY ( 2) C  1            s(  0.07%)p99.99( 87.94%)d99.99( 11.98%)
                                         0.0000  0.0246 -0.0109  0.0448 -0.5574
                                         0.0027  0.0956 -0.0173 -0.7465 -0.2893
                                        -0.1411 -0.0341  0.0047  0.1226
  50. (0.00158) RY ( 3) C  1            s(  0.01%)p 1.00( 11.58%)d 7.64( 88.41%)
                                         0.0000  0.0081 -0.0010  0.0133 -0.1873
                                         0.0170  0.1809 -0.0023 -0.2180  0.9017
                                         0.1963 -0.0457 -0.1734  0.0207
  51. (0.00030) RY ( 4) C  1            s(  0.00%)p 1.00( 94.37%)d 0.06(  5.63%)
                                         0.0000  0.0001  0.0002 -0.0002 -0.0699
                                        -0.0017  0.9411 -0.0005  0.2307 -0.1520
                                        -0.0241 -0.1619 -0.0169 -0.0779
  52. (0.00013) RY ( 5) C  1            s(  7.43%)p 2.96( 21.97%)d 9.50( 70.60%)
                                         0.0000 -0.0010  0.2726 -0.0282  0.2947
                                        -0.0003  0.1056 -0.0071 -0.3477 -0.1018
                                         0.6694  0.0847  0.3971 -0.2876
  53. (0.00006) RY ( 6) C  1            s( 47.18%)p 0.34( 15.91%)d 0.78( 36.91%)
  54. (0.00000) RY ( 7) C  1            s( 14.80%)p 1.26( 18.68%)d 4.50( 66.52%)
  55. (0.00000) RY ( 8) C  1            s(  0.01%)p 1.00(  3.56%)d27.12( 96.44%)
  56. (0.00000) RY ( 9) C  1            s(  5.83%)p 0.21(  1.24%)d15.94( 92.92%)
  57. (0.00267) RY ( 1) O  2            s( 35.27%)p 1.53( 54.09%)d 0.30( 10.65%)
                                         0.0000 -0.0061  0.5938  0.0103  0.6509
                                        -0.0006 -0.0070  0.0073  0.3420  0.0843
                                        -0.2965 -0.0437  0.0934 -0.0284
  58. (0.00209) RY ( 2) O  2            s(  0.03%)p99.99( 95.25%)d99.99(  4.73%)
                                         0.0000 -0.0001  0.0166  0.0001  0.0979
                                        -0.0020 -0.9413 -0.0003 -0.2382  0.1410
                                         0.0137  0.1500  0.0205  0.0653
  59. (0.00034) RY ( 3) O  2            s(  0.09%)p99.99( 69.17%)d99.99( 30.75%)
                                         0.0000  0.0079  0.0289 -0.0027  0.4381
                                        -0.0002  0.2130  0.0012 -0.6741 -0.0669
                                         0.2858  0.1669  0.1712 -0.4051
  60. (0.00019) RY ( 4) O  2            s(  0.05%)p 1.09(  0.05%)d99.99( 99.90%)
                                         0.0000 -0.0003  0.0221 -0.0003 -0.0217
                                        -0.0002  0.0039  0.0003 -0.0066 -0.7030
                                        -0.2375  0.5523  0.2585  0.2764
  61. (0.00008) RY ( 5) O  2            s(  0.33%)p71.68( 23.43%)d99.99( 76.24%)
  62. (0.00005) RY ( 6) O  2            s( 44.82%)p 1.03( 46.10%)d 0.20(  9.08%)
  63. (0.00003) RY ( 7) O  2            s( 18.68%)p 0.38(  7.12%)d 3.97( 74.20%)
  64. (0.00001) RY ( 8) O  2            s(  0.75%)p 1.17(  0.87%)d99.99( 98.38%)
  65. (0.00001) RY ( 9) O  2            s(  0.00%)p 1.00(  4.19%)d22.88( 95.81%)
  66. (0.00450) RY ( 1) C  3            s( 54.25%)p 0.58( 31.43%)d 0.26( 14.31%)
                                         0.0000 -0.0107  0.7365 -0.0086 -0.1242
                                         0.0151  0.1760 -0.0387  0.5159  0.1512
                                        -0.2272  0.0711  0.1520 -0.2012
  67. (0.00387) RY ( 2) C  3            s(  6.24%)p13.51( 84.27%)d 1.52(  9.49%)
                                         0.0000 -0.0029  0.2497 -0.0031 -0.0772
                                        -0.0171 -0.9032 -0.0153 -0.1433 -0.1862
                                        -0.1679 -0.1028  0.0664 -0.1305
  68. (0.00234) RY ( 3) C  3            s(  0.13%)p99.99( 86.65%)d99.99( 13.23%)
                                         0.0000 -0.0060  0.0352 -0.0207 -0.7619
                                        -0.0031  0.1940  0.0155 -0.4976  0.1321
                                        -0.3197 -0.0300  0.1061  0.0209
  69. (0.00150) RY ( 4) C  3            s(  0.03%)p23.34(  0.61%)d99.99( 99.37%)
                                         0.0000  0.0004  0.0161 -0.0005  0.0343
                                         0.0123 -0.0612  0.0033 -0.0312 -0.2074
                                        -0.1240  0.8505  0.2561  0.3826
  70. (0.00067) RY ( 5) C  3            s(  6.01%)p 9.34( 56.11%)d 6.30( 37.88%)
                                         0.0000  0.0038  0.2451  0.0084  0.5902
                                         0.0031  0.1603 -0.0131 -0.4323  0.0922
                                        -0.5566 -0.1626 -0.0343  0.1812
  71. (0.00048) RY ( 6) C  3            s( 18.91%)p 1.59( 29.98%)d 2.70( 51.12%)
                                         0.0000  0.0074  0.4348 -0.0129  0.1099
                                        -0.0119  0.1666  0.0388 -0.5081 -0.2177
                                         0.5413  0.1807 -0.0244 -0.3709
  72. (0.00016) RY ( 7) C  3            s( 13.68%)p 0.22(  3.05%)d 6.09( 83.27%)
                                         0.0000 -0.0090  0.3697  0.0124 -0.1682
                                         0.0080 -0.0125 -0.0330  0.0269 -0.1633
                                         0.2591 -0.2130 -0.3952  0.7330
  73. (0.00007) RY ( 8) C  3            s(  0.58%)p13.22(  7.68%)d99.99( 91.74%)
  74. (0.00002) RY ( 9) C  3            s(  0.10%)p 6.46(  0.66%)d99.99( 99.24%)
  75. (0.00740) RY ( 1) C  4            s(  4.30%)p21.46( 92.16%)d 0.82(  3.54%)
                                         0.0000 -0.0162  0.2066  0.0120  0.3424
                                        -0.0020 -0.0711 -0.0274 -0.8935 -0.0170
                                         0.0395  0.1179  0.0250 -0.1381
  76. (0.00244) RY ( 2) C  4            s(  6.47%)p13.85( 89.61%)d 0.60(  3.91%)
                                         0.0000  0.0104  0.2542 -0.0034  0.2765
                                         0.0034 -0.8761  0.0045  0.2280  0.0467
                                        -0.0915  0.1038  0.0760  0.1097
  77. (0.00166) RY ( 3) C  4            s( 13.59%)p 6.15( 83.53%)d 0.21(  2.88%)
                                         0.0000 -0.0018  0.3686 -0.0092  0.7299
                                        -0.0038  0.4192 -0.0066  0.3558 -0.0094
                                        -0.0535  0.0082  0.0332 -0.1572
  78. (0.00080) RY ( 4) C  4            s( 25.76%)p 0.38(  9.80%)d 2.50( 64.44%)
[...]

                     72        73        74        75        76        77   
                   0.00000   0.00000   0.00000   0.00000   0.00000   0.00000
                   0.00007   0.00002   0.00740   0.00244   0.00166   0.00080
                  --------  --------  --------  --------  --------  --------
  0 C                -0.0      -0.0      -0.2      -0.1      -0.1      -0.7
  1 O                 0.2      -0.1      -1.4      -1.0      -0.2      -0.3
  2 C               114.8     106.7      -7.2      -7.9      -7.5     -43.7
  3 C                -3.9      -0.4     166.0     183.2     178.6     167.0
  4 C                 0.1      -0.1      -7.7      -6.4     -54.7      -9.2
  5 C                 0.2      -0.1     -24.4     -60.3     -13.4      -7.7
  6 C                -0.1      -0.0       2.3      -4.2      -0.8      -0.8
 10 H                -4.9      -2.6      -0.1      -0.3      -0.2       0.8
 11 H                -6.3      -3.4       0.2       0.0      -0.1       0.3
 12 H                -0.1       0.0     -27.7      -0.5      -2.2      -5.5
 13 H                 0.0       0.0       0.3      -0.1      -0.0       0.2
 14 H                -0.0       0.0      -0.1      -0.2       0.2      -0.3
 15 H                -0.0       0.0       0.0      -0.1       0.6      -0.1
 16 H                 0.0      -0.0       0.1      -1.0      -0.1       0.0
 17 H                -0.0      -0.0      -0.0      -1.0      -0.0      -0.0

                     78        79        80        81        82        83   
                   0.00000   0.00000   0.00000   0.00000   0.00000   0.00000
                   0.00069   0.00059   0.00025   0.00012   0.00007   0.00436
                  --------  --------  --------  --------  --------  --------
  0 C                -0.1      -0.2      -0.1      -0.0      -0.0      -0.0
  1 O                -0.2      -0.8      -0.1      -0.1       0.4       0.1
  2 C               -10.1     -23.5     -11.0      -3.7      -2.6      -7.0
  3 C               121.2     152.5     127.5     116.4     108.6     -16.0
  4 C                -6.8     -11.8      -7.8      -2.4       0.0     147.9
  5 C                -2.4     -11.8      -3.2      -5.8      -0.3      -0.4
  6 C                -0.5      -0.2       0.2       1.3       0.1      -0.0
 10 H                -0.4       0.5       0.3      -0.0      -0.1       0.2
 11 H                 0.3      -0.0       0.0      -0.0      -0.1      -0.3
 12 H                -1.2      -5.0      -6.0      -5.3      -5.9      -0.1
 13 H                 0.0       0.2      -0.2      -0.0      -0.1      -6.6
 14 H                 0.1       0.3       0.5       0.0      -0.0      -8.6
 15 H                -0.2       0.1       0.1       0.1       0.0      -9.1
 16 H                 0.1      -0.3      -0.1      -0.4       0.0      -0.0

                     84        85        86        87        88        89   
                   0.00000   0.00000   0.00000   0.00000   0.00000   0.00000
                   0.00259   0.00078   0.00018   0.00006   0.00003   0.00001
                  --------  --------  --------  --------  --------  --------
  2 C                -0.0       0.5      -0.2      -0.0      -0.0      -0.0
  3 C               -14.6     -61.8      -0.1      -5.7      -3.2      -2.4
  4 C               141.6     178.9     148.3     121.0     117.2     111.2
  5 C                -5.1      -1.1      -0.4       0.2       0.0       0.1
  6 C                 0.1       0.4      -0.2       0.0      -0.1       0.0
 10 H                -0.0       0.0      -0.1      -0.0      -0.0      -0.0
 11 H                -0.1      -0.2      -0.0      -0.0      -0.0      -0.0
 12 H                -0.2       0.1       0.1       0.3       0.0       0.0
 13 H               -13.5       0.2     -21.3      -3.9      -0.3      -5.3
 14 H                -5.9      -6.7     -13.5      -4.8      -7.1      -3.0
 15 H                -2.3     -10.1     -12.7      -7.0      -6.5      -0.6

                     90        91        92        93        94        95   
                   0.00000   0.00000   0.00000   0.00000   0.00000   0.00000
                   0.00001   0.00001   0.00596   0.00407   0.00300   0.00143
                  --------  --------  --------  --------  --------  --------
  1 O                -0.0      -0.0       0.2      -0.0      -0.1      -0.5
  2 C                -0.1      -0.0      -4.0      -1.1       0.6      -3.1
  3 C                -0.8      -0.8     -28.3      -3.1     -19.6     -67.7
  4 C               109.1     108.1      -0.6      -2.6       0.7      -2.6
  5 C                 0.0       0.0     169.2     118.7     217.3     275.7
  6 C                -0.0      -0.0      -7.9      -7.7     -84.8    -104.1
 10 H                -0.0      -0.0      -0.3      -0.0      -0.1      -0.2
 11 H                -0.0      -0.0       0.1      -0.3      -0.0      -0.8
 12 H                 0.0      -0.1      -0.2       0.0      -0.4       3.0
 13 H                -1.7      -2.5      -0.3      -0.0      -0.5      -0.0
 14 H                -2.5      -2.4      -0.2      -0.0      -0.1      -0.2
 15 H                -4.1      -2.3       0.0      -0.1       0.1      -0.5
 16 H                -0.0       0.0     -27.3      -3.7     -13.0      -0.7
 17 H                 0.0      -0.0      -0.2      -0.0      -2.3       2.7
 18 H                -0.0      -0.0      -0.2       0.0       2.3      -1.2

                     96        97        98        99       100       101   
                   0.00000   0.00000   0.00000   0.00000   0.00000   0.00000
                   0.00021   0.00007   0.00003   0.00003   0.00001   0.00485
                  --------  --------  --------  --------  --------  --------
  2 C                -0.2      -0.2      -0.0      -0.4       0.1      -0.0
  3 C                -1.9      -5.1      -0.2      -2.2      -1.1       1.6
  4 C                 0.2      -0.4      -0.1      -0.3       0.0      -0.0
  5 C               107.4     119.4     105.4     106.7     104.2     -32.2
  6 C                -2.2      -6.9      -0.3      -2.7      -0.5     168.0
 12 H                -0.1       0.3       0.0      -0.1      -0.2      -0.8
 16 H                -3.3      -7.6      -4.8      -0.9      -2.4       0.8
 17 H                -0.0       0.3      -0.1       0.0      -0.0     -18.9
 18 H                 0.1       0.2       0.1      -0.0       0.0     -18.3

                    102       103       104       105       106       107   
                   0.00000   0.00000   0.00000   0.00000   0.00000   0.00000
                   0.00088   0.00033   0.00014   0.00004   0.00000   0.00000
                  --------  --------  --------  --------  --------  --------
  2 C                 0.7      -0.2       0.1      -0.0      -0.0      -0.1
  3 C                -6.9      -0.1       0.4       0.6      -0.1      -0.0
  4 C                 0.7      -0.1       0.1      -0.0       0.0      -0.1
  5 C              -118.0      -6.3     -42.8      -4.7      -2.3      -2.7
  6 C               230.9     107.7     185.3     115.2     109.2     105.5
 12 H                -1.5      -0.0      -0.3       0.0      -0.0      -0.0
 16 H                -1.1      -0.0      -0.3      -0.2       0.0      -0.0
 17 H                -2.9      -0.3     -24.8      -3.4      -0.8      -0.6
 18 H                -1.8      -0.6     -17.7      -7.6      -5.9      -2.0

                    108       109       110       111       112       113   
                   0.00000   0.00000   0.00000   0.00000   0.00000   0.00000
                   0.00000   0.00000   0.00105   0.00017   0.00009   0.00001
                  --------  --------  --------  --------  --------  --------
  0 C                -0.0      -0.0     -39.9      -2.9      -5.4      -5.7
  1 O                -0.0      -0.0       0.3      -0.2       0.0      -0.3
  2 C                -0.0      -0.0      -0.4      -0.0      -0.1      -0.0
  3 C                 0.2      -0.0      -0.1      -0.0      -0.0      -0.0
  5 C                -5.0      -0.8      -0.0      -0.0      -0.0      -0.0
  6 C               120.2     105.0      -0.0      -0.0      -0.0      -0.0
  7 H                -0.0      -0.0     141.1     103.7     106.1     106.4
  8 H                 0.0      -0.0      -0.5      -0.3      -0.3      -0.2
  9 H                 0.0      -0.0      -0.5      -0.3      -0.3      -0.2
 12 H                -0.1      -0.0       0.0      -0.0      -0.0      -0.0
 16 H                -0.1      -0.0      -0.0      -0.0      -0.0      -0.0
 17 H                -7.2      -3.1      -0.0      -0.0      -0.0      -0.0
 18 H                -8.0      -1.1      -0.0      -0.0      -0.0      -0.0

                    114       115       116       117       118       119   
                   0.00000   0.00000   0.00000   0.00000   0.00000   0.00000
                   0.00341   0.00019   0.00012   0.00002   0.00348   0.00019
                  --------  --------  --------  --------  --------  --------
  0 C               -34.3      -2.8      -4.4      -6.5     -34.2      -2.8
  1 O                -0.0      -0.1      -0.0      -0.3      -0.0      -0.1
  2 C                 0.1      -0.1       0.1      -0.0       0.1      -0.1
  7 H                -0.4      -0.3      -0.4      -0.1      -0.4      -0.3
  8 H               137.4     103.8     105.2     107.2      -0.3      -0.4
  9 H                -0.3      -0.4      -0.4      -0.2     137.2     103.8
 10 H                -0.0      -0.0      -0.0       0.0      -2.3      -0.0
 11 H                -2.3      -0.0      -0.0      -0.1      -0.0      -0.0

                    120       121       122       123       124       125   
                   0.00000   0.00000   0.00000   0.00000   0.00000   0.00000
                   0.00012   0.00002   0.00431   0.00013   0.00010   0.00003
                  --------  --------  --------  --------  --------  --------
  0 C                -4.4      -6.6       0.1      -0.1      -0.1      -0.1
  1 O                -0.0      -0.3      -0.1      -0.4      -0.1      -0.5
  2 C                 0.1      -0.0     -33.5      -3.7      -3.4      -6.7
  3 C                -0.0      -0.0       1.0      -0.1      -0.6      -0.0
  5 C                -0.0      -0.0      -0.5      -0.0      -0.0      -0.0
  7 H                -0.4      -0.1      -0.0      -0.0      -0.0      -0.0
  8 H                -0.4      -0.2      -0.0      -0.0      -0.0      -0.0
  9 H               105.2     107.3      -2.3       0.0      -0.0      -0.1
 10 H                -0.0      -0.1     137.8     105.0     105.1     107.7
 11 H                -0.0       0.0      -0.2      -0.7      -0.5      -0.1
 12 H                -0.0      -0.0      -0.4       0.0      -0.1      -0.0
 14 H                -0.0      -0.0      -1.9      -0.0      -0.0      -0.1

                    126       127       128       129       130       131   
                   0.00000   0.00000   0.00000   0.00000   0.00000   0.00000
                   0.00422   0.00014   0.00010   0.00003   0.00338   0.00008
                  --------  --------  --------  --------  --------  --------
  1 O                -0.1      -0.4      -0.1      -0.5      -0.3      -0.1
  2 C               -34.3      -3.5      -3.5      -6.8       0.7      -0.2
  3 C                 1.3      -0.0      -0.6      -0.1     -34.7      -3.0
  4 C                -0.4      -0.0      -0.1      -0.0       0.1      -0.3
  5 C                -1.1      -0.0      -0.1      -0.0       2.2      -0.1
  6 C                 0.0      -0.0       0.0      -0.0      -2.4      -0.0
  8 H                -2.3       0.0      -0.1      -0.1      -0.0      -0.0
 10 H                -0.3      -0.7      -0.6      -0.1      -0.4      -0.1
 11 H               137.8     104.7     105.2     107.6      -0.4      -0.0
 12 H                -0.5       0.0      -0.1      -0.0     138.2     104.1
 14 H                 0.0      -0.0      -0.0      -0.0      -0.2      -0.1
 15 H                -0.0      -0.0      -0.0      -0.0      -0.3      -0.0
 17 H                -0.0      -0.0      -0.0      -0.0      -2.3      -0.0

                    132       133       134       135       136       137   
                   0.00000   0.00000   0.00000   0.00000   0.00000   0.00000
                   0.00008   0.00004   0.00281   0.00015   0.00011   0.00003
                  --------  --------  --------  --------  --------  --------
  1 O                -0.1      -0.0      -1.0      -0.0      -0.0      -0.0
  2 C                -0.3       0.0       0.1      -0.1      -0.0      -0.0
  3 C                -3.2      -7.8       1.1      -0.1      -0.2      -0.1
  4 C                -0.1      -0.1     -36.3      -3.1      -3.0      -7.9
  5 C                -0.3      -0.2      -0.6      -0.0      -0.1      -0.0
 12 H               104.2     108.1       0.0      -0.1      -0.0      -0.0
 13 H                -0.0      -0.0     138.7     104.3     104.3     108.4
 14 H                -0.0      -0.0      -0.3      -0.5      -0.4      -0.1
 15 H                -0.0      -0.0      -0.6      -0.3      -0.4      -0.1
 16 H                -0.0      -0.0      -0.9      -0.0       0.0      -0.0

                    138       139       140       141       142       143   
                   0.00000   0.00000   0.00000   0.00000   0.00000   0.00000
                   0.00170   0.00017   0.00012   0.00002   0.00157   0.00015
                  --------  --------  --------  --------  --------  --------
  2 C                -0.1      -0.0      -0.0      -0.0      -0.4      -0.0
  3 C                 0.9      -0.2      -0.1      -0.2       0.8      -0.2
  4 C               -34.5      -2.8      -3.2      -7.9     -34.8      -2.9
  5 C                -0.3      -0.0      -0.0      -0.1      -0.8      -0.0
 10 H                -1.9      -0.0      -0.0      -0.1      -0.0      -0.0
 12 H                -0.3      -0.0      -0.1      -0.0      -0.4      -0.0
 13 H                -0.4      -0.4      -0.4      -0.1      -0.5      -0.4
 14 H               136.9     103.9     104.2     108.6      -0.3      -0.3
 15 H                -0.3      -0.3      -0.4      -0.1     136.5     104.0

                    144       145       146       147       148       149   
                   0.00000   0.00000   0.00000   0.00000   0.00000   0.00000
                   0.00010   0.00002   0.00371   0.00019   0.00008   0.00005
                  --------  --------  --------  --------  --------  --------
  1 O                -0.0      -0.0      -0.7      -0.0      -0.1      -0.0
  3 C                -0.2      -0.2      -0.8      -0.1       0.0      -0.7
  4 C                -3.1      -8.0      -0.1      -0.0      -0.0      -0.0
  5 C                -0.0      -0.0     -39.5      -3.1      -6.3      -6.9
  6 C                -0.0      -0.0      -1.1      -0.1      -0.6       0.4
 13 H                -0.4      -0.1      -0.9      -0.0      -0.0      -0.0
 14 H                -0.4      -0.1      -0.0      -0.0      -0.0      -0.0
 15 H               104.2     108.6      -0.0      -0.0      -0.0      -0.0
 16 H                -0.0      -0.0     144.2     103.5     107.2     107.4
 18 H                -0.0      -0.0      -1.1      -0.0      -0.1      -0.0

                    150       151       152       153       154       155   
                   0.00000   0.00000   0.00000   0.00000   0.00000   0.00000
                   0.00220   0.00023   0.00009   0.00005   0.00166   0.00023
                  --------  --------  --------  --------  --------  --------
  3 C                -1.2      -0.0      -0.0      -0.0       0.1      -0.0
  5 C                 0.7      -0.0      -0.2      -0.2       0.5      -0.0
  6 C               -41.6      -3.2      -3.6      -8.1     -41.6      -3.2
 12 H                -2.4      -0.0      -0.0      -0.1      -0.0      -0.0
 16 H                 0.1      -0.0      -0.0      -0.0      -1.2      -0.0
 17 H               145.7     103.4     104.5     108.5      -1.2      -0.1
 18 H                -1.1      -0.1      -0.6      -0.1     143.4     103.4

                    156       157   
                   0.00000   0.00000
                   0.00010   0.00005
                  --------  --------
  5 C                -0.2       0.0
  6 C                -3.6      -8.6
 17 H                -0.7      -0.1
 18 H               104.5     108.8

Storing NBOs: 4180.nbo
                                    *** NBOs were stored ***

                                *** returned from GENNBO program ***

-------
TIMINGS
-------

Total SCF time: 0 days 0 hours 0 min 6 sec 

Total time                  ....       6.524 sec
Sum of individual times     ....       7.094 sec  (108.7%)

Fock matrix formation       ....       4.118 sec  ( 63.1%)
  Coulomb formation         ....       2.144 sec  ( 52.0% of F)
  Split-RI-J                ....       2.136 sec  ( 51.9% of F)
  XC integration            ....       1.970 sec  ( 47.8% of F)
    Basis function eval.    ....       0.671 sec  ( 34.1% of XC)
    Density eval.           ....       0.364 sec  ( 18.5% of XC)
    XC-Functional eval.     ....       0.111 sec  (  5.6% of XC)
    XC-Potential eval.      ....       0.783 sec  ( 39.7% of XC)
Diagonalization             ....       0.033 sec  (  0.5%)
Density matrix formation    ....       0.003 sec  (  0.1%)
Population analysis         ....       1.653 sec  ( 25.3%)
Initial guess               ....       0.433 sec  (  6.6%)
Orbital Transformation      ....       0.000 sec  (  0.0%)
Orbital Orthonormalization  ....       0.000 sec  (  0.0%)
DIIS solution               ....       0.009 sec  (  0.1%)
SOSCF solution              ....       0.014 sec  (  0.2%)
Grid generation             ....       0.831 sec  ( 12.7%)
           ************************************************************
           *              Shut down parallel processing               *
           ************************************************************

-------------------------   --------------------
FINAL SINGLE POINT ENERGY      -310.401523223117
-------------------------   --------------------


                            ***************************************
                            *     ORCA property calculations      *
                            ***************************************

                                    ---------------------
                                    Active property flags
                                    ---------------------
   (+) Dipole Moment


------------------------------------------------------------------------------
                       ORCA ELECTRIC PROPERTIES CALCULATION
------------------------------------------------------------------------------

Dipole Moment Calculation                       ... on
Quadrupole Moment Calculation                   ... off
Polarizability Calculation                      ... off
GBWName                                         ... 4180.gbw
Electron density file                           ... 4180.scfp.tmp

-------------
DIPOLE MOMENT
-------------
                                X             Y             Z
Electronic contribution:      0.38946      -1.49169       0.56449
Nuclear contribution   :     -0.79832       1.61892      -0.75574
                        -----------------------------------------
Total Dipole Moment    :     -0.40886       0.12723      -0.19125
                        -----------------------------------------
Magnitude (a.u.)       :      0.46897
Magnitude (Debye)      :      1.19203


Timings for individual modules:

Sum of individual times         ...        7.759 sec (=   0.129 min)
GTO integral calculation        ...        0.472 sec (=   0.008 min)   6.1 %
SCF iterations                  ...        7.287 sec (=   0.121 min)  93.9 %
                             ****ORCA TERMINATED NORMALLY****
TOTAL RUN TIME: 0 days 0 hours 0 minutes 8 seconds 162 msec
