
                                 *****************
                                 * O   R   C   A *
                                 *****************

           --- An Ab Initio, DFT and Semiempirical electronic structure package ---

                  #######################################################
                  #                        -***-                        #
                  #  Department of molecular theory and spectroscopy    #
                  #              Directorship: Frank Neese              #
                  # Max Planck Institute for Chemical Energy Conversion #
                  #                  D-45470 Muelheim/Ruhr              #
                  #                       Germany                       #
                  #                                                     #
                  #                  All rights reserved                #
                  #                        -***-                        #
                  #######################################################


                         Program Version 3.0.3 - RELEASE   -


 With contributions from (in alphabetic order):
   Ute Becker             : Parallelization
   Dmytro Bykov           : SCF Hessian
   Dmitry Ganyushin       : Spin-Orbit,Spin-Spin,Magnetic field MRCI
   Andreas Hansen         : Spin unrestricted coupled pair/coupled cluster methods
   Dimitrios Liakos       : Extrapolation schemes; parallel MDCI
   Robert Izsak           : Overlap fitted RIJCOSX, COSX-SCS-MP3
   Christian Kollmar      : KDIIS, OOCD, Brueckner-CCSD(T), CCSD density
   Simone Kossmann        : Meta GGA functionals, TD-DFT gradient, OOMP2, MP2 Hessian
   Taras Petrenko         : DFT Hessian,TD-DFT gradient, ASA and ECA modules, normal mode analysis, Resonance Raman, ABS, FL, XAS/XES, NRVS
   Christoph Reimann      : Effective Core Potentials
   Michael Roemelt        : Restricted open shell CIS
   Christoph Riplinger    : Improved optimizer, TS searches, QM/MM, DLPNO-CCSD
   Barbara Sandhoefer     : DKH picture change effects
   Igor Schapiro          : Molecular dynamics
   Kantharuban Sivalingam : CASSCF convergence, NEVPT2
   Boris Wezisla          : Elementary symmetry handling
   Frank Wennmohs         : Technical directorship


 We gratefully acknowledge several colleagues who have allowed us to
 interface, adapt or use parts of their codes:
   Stefan Grimme, W. Hujo, H. Kruse, T. Risthaus : VdW corrections, initial TS optimization,
                                                   DFT functionals, gCP
   Ed Valeev                                     : LibInt (2-el integral package), F12 methods
   Garnet Chan, S. Sharma, R. Olivares           : DMRG
   Ulf Ekstrom                                   : XCFun DFT Library
   Mihaly Kallay                                 : mrcc  (arbitrary order and MRCC methods)
   Andreas Klamt, Michael Diedenhofen            : otool_cosmo (COSMO solvation model)
   Frank Weinhold                                : gennbo (NPA and NBO analysis)
   Christopher J. Cramer and Donald G. Truhlar   : smd solvation model


 Your calculation uses the libint2 library for the computation of 2-el integrals
 For citations please refer to: http://libint.valeyev.net

 This ORCA versions uses:
   CBLAS   interface :  Fast vector & matrix operations
   LAPACKE interface :  Fast linear algebra routines
   SCALAPACK package :  Parallel linear algebra routines


Your calculation utilizes the basis: Ahlrichs-VDZ
Cite in your paper:
H - Kr: A. Schaefer, H. Horn and R. Ahlrichs, J. Chem. Phys. 97, 2571 (1992).

Your calculation utilizes the basis: Ahlrichs SVPalls1+f
Cite in your paper:
Rb - Xe: A. Schaefer, C. Huber and R. Ahlrichs, J. Chem. Phys. 100, 5829 (1994).

================================================================================
                                        WARNINGS
                       Please study these warnings very carefully!
================================================================================
Now building the actual basis set


INFO   : the flag for use of LIBINT has been found!

================================================================================
                                       INPUT FILE
================================================================================
NAME = 4376.inp
|  1> ! RI PBE def2-SVP def2-SVP/J NBO PAL2
|  2> % maxcore 2000
|  3> % output
|  4>     # printlevel mini
|  5>     print[ P_Basis ] 0
|  6>     print[ P_SCFInfo ] 1
|  7>     print[ P_SCFIterInfo ] 1
|  8>     print[ P_OrbEn ] 0
|  9>     print[ P_Cartesian ] 0
| 10> end
| 11> *xyz 0 1
| 12>  O        1.0124040000    -0.0317550000     0.3687470000 
| 13>  C        2.1876220000    -0.0147840000     0.1278260000 
| 14>  O        2.8895020000     1.1250910000     0.3024550000 
| 15>  C        4.2029450000     1.1992650000    -0.2481460000 
| 16>  C        5.0415870000    -0.0117420000     0.0901020000 
| 17>  C        4.2732550000    -1.2442780000    -0.2458580000 
| 18>  C        2.9432760000    -1.2137060000    -0.2842630000 
| 19>  H        4.6319030000     2.1184460000     0.1503900000 
| 20>  H        4.1203810000     1.3000600000    -1.3365550000 
| 21>  H        5.3147220000    -0.0190890000     1.1529860000 
| 22>  H        5.9795400000     0.0295700000    -0.4709770000 
| 23>  H        4.8103730000    -2.1677850000    -0.4403230000 
| 24>  H        2.3403000000    -2.0832120000    -0.5118040000 
| 25> *
| 26> 
| 27>                          ****END OF INPUT****
================================================================================

                       ****************************
                       * Single Point Calculation *
                       ****************************

--------------------------------
INTERNAL COORDINATES (ANGSTROEM)
--------------------------------
 O      0   0   0   0.000000     0.000     0.000
 C      1   0   0   1.199778     0.000     0.000
 O      2   1   0   1.349980   119.686     0.000
 C      3   2   1   1.426112   118.217   192.882
 C      4   3   2   1.511380   112.518   311.577
 C      5   4   3   1.490754   109.029    50.495
 C      6   5   4   1.330885   120.169   335.419
 H      4   3   2   1.089830   105.378   189.188
 H      4   3   2   1.096180   108.588    73.252
 H      5   4   3   1.097442   111.114   289.172
 H      5   4   3   1.093742   109.316   171.943
 H      6   5   4   1.085899   119.247   156.515
 H      7   6   5   1.082310   122.980   180.708

---------------------------
INTERNAL COORDINATES (A.U.)
---------------------------
 O      0   0   0   0.000000     0.000     0.000
 C      1   0   0   2.267253     0.000     0.000
 O      2   1   0   2.551092   119.686     0.000
 C      3   2   1   2.694961   118.217   192.882
 C      4   3   2   2.856095   112.518   311.577
 C      5   4   3   2.817117   109.029    50.495
 C      6   5   4   2.515007   120.169   335.419
 H      4   3   2   2.059480   105.378   189.188
 H      4   3   2   2.071480   108.588    73.252
 H      5   4   3   2.073865   111.114   289.172
 H      5   4   3   2.066873   109.316   171.943
 H      6   5   4   2.052053   119.247   156.515
 H      7   6   5   2.045270   122.980   180.708



           ************************************************************
           *        Program running with 2 parallel MPI-processes     *
           *              working on a common directory               *
           ************************************************************
------------------------------------------------------------------------------
                           ORCA GTO INTEGRAL CALCULATION
                           -- RI-GTO INTEGRALS CHOSEN --
------------------------------------------------------------------------------

                         BASIS SET STATISTICS AND STARTUP INFO

Gaussian basis set:
 # of primitive gaussian shells          ...  114
 # of primitive gaussian functions       ...  210
 # of contracted shells                  ...   60
 # of contracted basis functions         ...  128
 Highest angular momentum                ...    2
 Maximum contraction depth               ...    5
Auxiliary gaussian basis set:
 # of primitive gaussian shells          ...  216
 # of primitive gaussian functions       ...  586
 # of contracted shells                  ...  135
 # of contracted aux-basis functions     ...  409
 Highest angular momentum                ...    4
 Maximum contraction depth               ...    7
Ratio of auxiliary to basis functions    ...  3.20
Integral package used                  ... LIBINT
 One Electron integrals                  ... done
 Ordering auxiliary basis shells         ... done
 Integral threshhold             Thresh  ...  1.000e-10
 Primitive cut-off               TCut    ...  1.000e-11
 Pre-screening matrix                    ... done
 Shell pair data                         ... 
 Ordering of the shell pairs             ... done (   0.000 sec) 1783 of 1830 pairs
 Determination of significant pairs      ... done (   0.000 sec)
 Creation of shell pair data             ... done (   0.000 sec)
 Storage of shell pair data              ... done (   0.000 sec)
 Shell pair data done in (   0.001 sec)
 Computing two index integrals           ... done
 Cholesky decomposition of the V-matrix  ... done


Timings:
 Total evaluation time                   ...   0.145 sec (  0.002 min)
 One electron matrix time                ...   0.015 sec (  0.000 min) = 10.1%
 Schwartz matrix evaluation time         ...   0.069 sec (  0.001 min) = 47.6%
 Two index repulsion integral time       ...   0.003 sec (  0.000 min) =  2.3%
 Cholesky decomposition of V             ...   0.003 sec (  0.000 min) =  1.9%
 Three index repulsion integral time     ...   0.000 sec (  0.000 min) =  0.0%

           ************************************************************
           *              Shut down parallel processing               *
           ************************************************************


           ************************************************************
           *        Program running with 2 parallel MPI-processes     *
           *              working on a common directory               *
           ************************************************************
-------------------------------------------------------------------------------
                                 ORCA SCF
-------------------------------------------------------------------------------

------------
SCF SETTINGS
------------
Hamiltonian:
 Density Functional     Method          .... DFT(GTOs)
 Exchange Functional    Exchange        .... PBE
   PBE kappa parameter  XKappa          ....  0.804000
 Correlation Functional Correlation     .... PBE
 LDA part of GGA corr.  LDAOpt          .... PW91-LDA
 Gradients option       PostSCFGGA      .... off
   NL short-range parameter             ....  6.400000
 RI-approximation to the Coulomb term is turned on
   Number of auxiliary basis functions  .... 409


General Settings:
 Integral files         IntName         .... 4376
 Hartree-Fock type      HFTyp           .... RHF
 Total Charge           Charge          ....    0
 Multiplicity           Mult            ....    1
 Number of Electrons    NEL             ....   52
 Basis Dimension        Dim             ....  128
 Nuclear Repulsion      ENuc            ....    296.7086593337 Eh

Convergence Acceleration:
 DIIS                   CNVDIIS         .... on
   Start iteration      DIISMaxIt       ....    12
   Startup error        DIISStart       ....  0.200000
   # of expansion vecs  DIISMaxEq       ....     5
   Bias factor          DIISBfac        ....   1.050
   Max. coefficient     DIISMaxC        ....  10.000
 Newton-Raphson         CNVNR           .... off
 SOSCF                  CNVSOSCF        .... on
   Start iteration      SOSCFMaxIt      ....   150
   Startup grad/error   SOSCFStart      ....  0.003300
 Level Shifting         CNVShift        .... on
   Level shift para.    LevelShift      ....    0.2500
   Turn off err/grad.   ShiftErr        ....    0.0010
 Zerner damping         CNVZerner       .... off
 Static damping         CNVDamp         .... on
   Fraction old density DampFac         ....    0.7000
   Max. Damping (<1)    DampMax         ....    0.9800
   Min. Damping (>=0)   DampMin         ....    0.0000
   Turn off err/grad.   DampErr         ....    0.1000
 Fernandez-Rico         CNVRico         .... off

SCF Procedure:
 Maximum # iterations   MaxIter         ....   125
 SCF integral mode      SCFMode         .... Direct
   Integral package                     .... LIBINT
 Reset frequeny         DirectResetFreq ....    20
 Integral Threshold     Thresh          ....  1.000e-10 Eh
 Primitive CutOff       TCut            ....  1.000e-11 Eh

Convergence Tolerance:
 Convergence Check Mode ConvCheckMode   .... Total+1el-Energy
 Energy Change          TolE            ....  1.000e-06 Eh
 1-El. energy change                    ....  1.000e-03 Eh
 Orbital Gradient       TolG            ....  5.000e-05
 Orbital Rotation angle TolX            ....  5.000e-05
 DIIS Error             TolErr          ....  1.000e-06


Diagonalization of the overlap matrix:
Smallest eigenvalue                        ... 9.203e-04
Time for diagonalization                   ...    0.009 sec
Threshold for overlap eigenvalues          ... 1.000e-08
Number of eigenvalues below threshold      ... 0
Time for construction of square roots      ...    0.003 sec
Total time needed                          ...    0.012 sec

-------------------
DFT GRID GENERATION
-------------------

General Integration Accuracy     IntAcc      ...  4.340
Radial Grid Type                 RadialGrid  ... Gauss-Chebyshev
Angular Grid (max. acc.)         AngularGrid ... Lebedev-110
Angular grid pruning method      GridPruning ... 3 (G Style)
Weight generation scheme         WeightScheme... Becke
Basis function cutoff            BFCut       ...    1.0000e-10
Integration weight cutoff        WCut        ...    1.0000e-14
Grids for H and He will be reduced by one unit

# of grid points (after initial pruning)     ...  16476 (   0.0 sec)
# of grid points (after weights+screening)   ...  15433 (   0.0 sec)
nearest neighbour list constructed           ...    0.0 sec
Grid point re-assignment to atoms done       ...    0.0 sec
Grid point division into batches done        ...    0.0 sec
Reduced shell lists constructed in    0.1 sec

Total number of grid points                  ...    15433
Total number of batches                      ...      248
Average number of points per batch           ...       62
Average number of grid points per atom       ...     1187
Average number of shells per batch           ...    48.50 (80.83%)
Average number of basis functions per batch  ...   104.74 (81.83%)
Average number of large shells per batch     ...    40.25 (82.99%)
Average number of large basis fcns per batch ...    85.77 (81.89%)
Maximum spatial batch extension              ...  14.47, 25.60, 24.89 au
Average spatial batch extension              ...   1.25,  1.50,  1.49 au

Time for grid setup =    0.122 sec

------------------------------
INITIAL GUESS: MODEL POTENTIAL
------------------------------
Loading Hartree-Fock densities                     ... done
Calculating cut-offs                               ... done
Setting up the integral package                    ... done
Initializing the effective Hamiltonian             ... done
Starting the Coulomb interaction                   ... done (   0.0 sec)
Reading the grid                                   ... done
Mapping shells                                     ... done
Starting the XC term evaluation                    ... done (   0.1 sec)
  promolecular density results
     # of electrons  =     51.991898891
     EX              =    -43.656449519
     EC              =     -1.738375318
     EX+EC           =    -45.394824838
Transforming the Hamiltonian                       ... done (   0.0 sec)
Diagonalizing the Hamiltonian                      ... done (   0.0 sec)
Back transforming the eigenvectors                 ... done (   0.0 sec)
Now organizing SCF variables                       ... done
                      ------------------
                      INITIAL GUESS DONE (   0.3 sec)
                      ------------------
--------------
SCF ITERATIONS
--------------
ITER       Energy         Delta-E        Max-DP      RMS-DP      [F,P]     Damp
               ***  Starting incremental Fock matrix formation  ***
  0   -343.7486074042   0.000000000000 0.16196886  0.00374608  0.2494894 0.7000
  1   -343.8343112579  -0.085703853696 0.08738200  0.00220705  0.0714937 0.7000
                               ***Turning on DIIS***
  2   -343.8597016529  -0.025390394985 0.05120784  0.00289440  0.0241490 0.0000
  3   -343.9092444657  -0.049542812816 0.06362233  0.00157319  0.0383355 0.0000
  4   -343.9173424553  -0.008097989564 0.01569430  0.00052906  0.0290330 0.0000
                      *** Initiating the SOSCF procedure ***
                           *** Shutting down DIIS ***
                      *** Re-Reading the Fockian *** 
                      *** Removing any level shift *** 
ITER      Energy       Delta-E        Grad      Rot      Max-DP    RMS-DP
  5   -343.91894041  -0.0015979503  0.000505  0.000505  0.002563  0.000147
               *** Restarting incremental Fock matrix formation ***
  6   -343.91898329  -0.0000428837  0.000644  0.002545  0.004936  0.000146
  7   -343.91894402   0.0000392705  0.001852  0.002692  0.003545  0.000089
  8   -343.91899043  -0.0000464131  0.000162  0.000928  0.001046  0.000024
  9   -343.91898899   0.0000014435  0.000454  0.000734  0.000794  0.000016
 10   -343.91899077  -0.0000017808  0.000033  0.000097  0.000195  0.000007
                 **** Energy Check signals convergence ****
              ***Rediagonalizing the Fockian in SOSCF/NRSCF***

               *****************************************************
               *                     SUCCESS                       *
               *           SCF CONVERGED AFTER  11 CYCLES          *
               *****************************************************

Setting up the final grid:

General Integration Accuracy     IntAcc      ...  4.670
Radial Grid Type                 RadialGrid  ... Gauss-Chebyshev
Angular Grid (max. acc.)         AngularGrid ... Lebedev-302
Angular grid pruning method      GridPruning ... 3 (G Style)
Weight generation scheme         WeightScheme... Becke
Basis function cutoff            BFCut       ...    1.0000e-10
Integration weight cutoff        WCut        ...    1.0000e-14
Grids for H and He will be reduced by one unit

# of grid points (after initial pruning)     ...  63848 (   0.0 sec)
# of grid points (after weights+screening)   ...  58845 (   0.1 sec)
nearest neighbour list constructed           ...    0.0 sec
Grid point re-assignment to atoms done       ...    0.0 sec
Grid point division into batches done        ...    0.2 sec
Reduced shell lists constructed in    0.4 sec

Total number of grid points                  ...    58845
Total number of batches                      ...      925
Average number of points per batch           ...       63
Average number of grid points per atom       ...     4527
Average number of shells per batch           ...    46.44 (77.39%)
Average number of basis functions per batch  ...   100.11 (78.21%)
Average number of large shells per batch     ...    37.92 (81.65%)
Average number of large basis fcns per batch ...    80.14 (80.06%)
Maximum spatial batch extension              ...  14.71, 14.60, 15.80 au
Average spatial batch extension              ...   0.89,  0.94,  0.98 au

Final grid set up in    0.5 sec
Final integration                            ... done (   0.3 sec)
Change in XC energy                          ...    -0.000983991
Integrated number of electrons               ...    51.999989727
Previous integrated no of electrons          ...    51.994186139

----------------
TOTAL SCF ENERGY
----------------

Total Energy       :         -343.91997472 Eh           -9358.53829 eV

Components:
Nuclear Repulsion  :          296.70865933 Eh            8073.85309 eV
Electronic Energy  :         -640.62863405 Eh          -17432.39138 eV

One Electron Energy:        -1055.33936818 Eh          -28717.24416 eV
Two Electron Energy:          414.71073413 Eh           11284.85279 eV

Virial components:
Potential Energy   :         -685.03476273 Eh          -18640.74357 eV
Kinetic Energy     :          341.11478801 Eh            9282.20528 eV
Virial Ratio       :            2.00822359


DFT components:
N(Alpha)           :       25.999994863527 electrons
N(Beta)            :       25.999994863527 electrons
N(Total)           :       51.999989727055 electrons
E(X)               :      -44.380203786784 Eh       
E(C)               :       -1.749922071526 Eh       
E(XC)              :      -46.130125858310 Eh       

---------------
SCF CONVERGENCE
---------------

  Last Energy change         ...    4.1899e-08  Tolerance :   1.0000e-06
  Last MAX-Density change    ...    1.2898e-04  Tolerance :   1.0000e-05
  Last RMS-Density change    ...    4.0300e-06  Tolerance :   1.0000e-06
  Last Orbital Gradient      ...    3.3874e-05  Tolerance :   5.0000e-05
  Last Orbital Rotation      ...    4.5338e-05  Tolerance :   5.0000e-05

             **** THE GBW FILE WAS UPDATED (4376.gbw) ****
             **** DENSITY FILE WAS UPDATED (4376.scfp.tmp) ****
             **** ENERGY FILE WAS UPDATED (4376.en.tmp) ****

                    ********************************
                    * MULLIKEN POPULATION ANALYSIS *
                    ********************************

-----------------------
MULLIKEN ATOMIC CHARGES
-----------------------
   0 O :   -0.153149
   1 C :    0.154355
   2 O :   -0.246751
   3 C :    0.165517
   4 C :    0.030598
   5 C :   -0.044659
   6 C :   -0.073766
   7 H :    0.025798
   8 H :    0.031645
   9 H :    0.051482
  10 H :    0.032572
  11 H :    0.014743
  12 H :    0.011615
Sum of atomic charges:    0.0000000

--------------------------------
MULLIKEN REDUCED ORBITAL CHARGES
--------------------------------
  0 O s       :     3.718354  s :     3.718354
      pz      :     1.378862  p :     4.416464
      px      :     1.321077
      py      :     1.716525
      dz2     :     0.002241  d :     0.018331
      dxz     :     0.005771
      dyz     :     0.000225
      dx2y2   :     0.006013
      dxy     :     0.004082
  1 C s       :     3.026434  s :     3.026434
      pz      :     0.880635  p :     2.687637
      px      :     0.905468
      py      :     0.901534
      dz2     :     0.009200  d :     0.131574
      dxz     :     0.025464
      dyz     :     0.012188
      dx2y2   :     0.031275
      dxy     :     0.053447
  2 O s       :     3.739812  s :     3.739812
      pz      :     1.669401  p :     4.490928
      px      :     1.311954
      py      :     1.509572
      dz2     :     0.002345  d :     0.016012
      dxz     :     0.002979
      dyz     :     0.002600
      dx2y2   :     0.004537
      dxy     :     0.003550
  3 C s       :     3.002126  s :     3.002126
      pz      :     0.983532  p :     2.774246
      px      :     0.764736
      py      :     1.025977
      dz2     :     0.013316  d :     0.058111
      dxz     :     0.012339
      dyz     :     0.004725
      dx2y2   :     0.015028
      dxy     :     0.012703
  4 C s       :     2.947000  s :     2.947000
      pz      :     1.024736  p :     2.989563
      px      :     1.005246
      py      :     0.959581
      dz2     :     0.007335  d :     0.032838
      dxz     :     0.005917
      dyz     :     0.004804
      dx2y2   :     0.007390
      dxy     :     0.007392
  5 C s       :     3.180322  s :     3.180322
      pz      :     0.932614  p :     2.830425
      px      :     0.981183
      py      :     0.916628
      dz2     :     0.002488  d :     0.033912
      dxz     :     0.007213
      dyz     :     0.002492
      dx2y2   :     0.009720
      dxy     :     0.011999
  6 C s       :     3.220741  s :     3.220741
      pz      :     1.005415  p :     2.823589
      px      :     0.889314
      py      :     0.928860
      dz2     :     0.002404  d :     0.029436
      dxz     :     0.005875
      dyz     :     0.002115
      dx2y2   :     0.007462
      dxy     :     0.011581
  7 H s       :     0.952842  s :     0.952842
      pz      :     0.005895  p :     0.021360
      px      :     0.004018
      py      :     0.011447
  8 H s       :     0.946769  s :     0.946769
      pz      :     0.013851  p :     0.021586
      px      :     0.002898
      py      :     0.004837
  9 H s       :     0.925427  s :     0.925427
      pz      :     0.013353  p :     0.023092
      px      :     0.005455
      py      :     0.004284
 10 H s       :     0.944284  s :     0.944284
      pz      :     0.007520  p :     0.023143
      px      :     0.011240
      py      :     0.004384
 11 H s       :     0.962340  s :     0.962340
      pz      :     0.004885  p :     0.022918
      px      :     0.006607
      py      :     0.011426
 12 H s       :     0.965265  s :     0.965265
      pz      :     0.005135  p :     0.023120
      px      :     0.007406
      py      :     0.010579


                     *******************************
                     * LOEWDIN POPULATION ANALYSIS *
                     *******************************

----------------------
LOEWDIN ATOMIC CHARGES
----------------------
   0 O :   -0.126488
   1 C :    0.030606
   2 O :   -0.071236
   3 C :    0.076863
   4 C :   -0.058310
   5 C :    0.006023
   6 C :   -0.073657
   7 H :    0.028827
   8 H :    0.021428
   9 H :    0.048007
  10 H :    0.044886
  11 H :    0.032168
  12 H :    0.040883

-------------------------------
LOEWDIN REDUCED ORBITAL CHARGES
-------------------------------
  0 O s       :     3.541148  s :     3.541148
      pz      :     1.381845  p :     4.553543
      px      :     1.454812
      py      :     1.716886
      dz2     :     0.004309  d :     0.031797
      dxz     :     0.008351
      dyz     :     0.000310
      dx2y2   :     0.012707
      dxy     :     0.006120
  1 C s       :     2.847430  s :     2.847430
      pz      :     0.873632  p :     2.821745
      px      :     0.999762
      py      :     0.948351
      dz2     :     0.020721  d :     0.300219
      dxz     :     0.051188
      dyz     :     0.024362
      dx2y2   :     0.075606
      dxy     :     0.128342
  2 O s       :     3.457360  s :     3.457360
      pz      :     1.670747  p :     4.582587
      px      :     1.360289
      py      :     1.551551
      dz2     :     0.004201  d :     0.031289
      dxz     :     0.005605
      dyz     :     0.003632
      dx2y2   :     0.009538
      dxy     :     0.008312
  3 C s       :     2.843735  s :     2.843735
      pz      :     1.042797  p :     2.943179
      px      :     0.847357
      py      :     1.053025
      dz2     :     0.035028  d :     0.136223
      dxz     :     0.026656
      dyz     :     0.010040
      dx2y2   :     0.032862
      dxy     :     0.031637
  4 C s       :     2.833375  s :     2.833375
      pz      :     1.065609  p :     3.136814
      px      :     1.038813
      py      :     1.032391
      dz2     :     0.020461  d :     0.088121
      dxz     :     0.015934
      dyz     :     0.010485
      dx2y2   :     0.018387
      dxy     :     0.022854
  5 C s       :     2.875526  s :     2.875526
      pz      :     0.917849  p :     3.028690
      px      :     1.087277
      py      :     1.023564
      dz2     :     0.006229  d :     0.089761
      dxz     :     0.015238
      dyz     :     0.004815
      dx2y2   :     0.028217
      dxy     :     0.035263
  6 C s       :     2.882867  s :     2.882867
      pz      :     0.993246  p :     3.104379
      px      :     1.076159
      py      :     1.034973
      dz2     :     0.006881  d :     0.086411
      dxz     :     0.013499
      dyz     :     0.005200
      dx2y2   :     0.025219
      dxy     :     0.035612
  7 H s       :     0.905641  s :     0.905641
      pz      :     0.016447  p :     0.065532
      px      :     0.013860
      py      :     0.035225
  8 H s       :     0.911487  s :     0.911487
      pz      :     0.043762  p :     0.067085
      px      :     0.009876
      py      :     0.013447
  9 H s       :     0.883560  s :     0.883560
      pz      :     0.039868  p :     0.068433
      px      :     0.014862
      py      :     0.013703
 10 H s       :     0.886830  s :     0.886830
      pz      :     0.020705  p :     0.068284
      px      :     0.033826
      py      :     0.013753
 11 H s       :     0.897801  s :     0.897801
      pz      :     0.014738  p :     0.070031
      px      :     0.019257
      py      :     0.036036
 12 H s       :     0.888122  s :     0.888122
      pz      :     0.015999  p :     0.070994
      px      :     0.021171
      py      :     0.033825


                      *****************************
                      * MAYER POPULATION ANALYSIS *
                      *****************************

  NA   - Mulliken gross atomic population
  ZA   - Total nuclear charge
  QA   - Mulliken gross atomic charge
  VA   - Mayer's total valence
  BVA  - Mayer's bonded valence
  FA   - Mayer's free valence

  ATOM       NA         ZA         QA         VA         BVA        FA
  0 O      8.1531     8.0000    -0.1531     2.3515     2.3515     0.0000
  1 C      5.8456     6.0000     0.1544     4.3348     4.3348     0.0000
  2 O      8.2468     8.0000    -0.2468     2.2393     2.2393     0.0000
  3 C      5.8345     6.0000     0.1655     4.0591     4.0591     0.0000
  4 C      5.9694     6.0000     0.0306     3.9935     3.9935     0.0000
  5 C      6.0447     6.0000    -0.0447     3.9371     3.9371    -0.0000
  6 C      6.0738     6.0000    -0.0738     3.8381     3.8381    -0.0000
  7 H      0.9742     1.0000     0.0258     0.9821     0.9821     0.0000
  8 H      0.9684     1.0000     0.0316     0.9768     0.9768     0.0000
  9 H      0.9485     1.0000     0.0515     0.9803     0.9803     0.0000
 10 H      0.9674     1.0000     0.0326     0.9826     0.9826    -0.0000
 11 H      0.9853     1.0000     0.0147     0.9847     0.9847    -0.0000
 12 H      0.9884     1.0000     0.0116     1.0000     1.0000    -0.0000

  Mayer bond orders larger than 0.1
B(  0-O ,  1-C ) :   2.1331 B(  1-C ,  2-O ) :   1.1396 B(  1-C ,  6-C ) :   0.9926 
B(  2-O ,  3-C ) :   0.9501 B(  3-C ,  4-C ) :   1.1115 B(  3-C ,  7-H ) :   0.9418 
B(  3-C ,  8-H ) :   0.9416 B(  4-C ,  5-C ) :   1.0488 B(  4-C ,  9-H ) :   0.8906 
B(  4-C , 10-H ) :   0.9140 B(  5-C ,  6-C ) :   1.8008 B(  5-C , 11-H ) :   0.9615 
B(  6-C , 12-H ) :   0.9702 


 *********************************** NBO 6.0 ***********************************
             N A T U R A L   A T O M I C   O R B I T A L   A N D
          N A T U R A L   B O N D   O R B I T A L   A N A L Y S I S
 ***************************** Kiya KiyaLu (100703) ****************************
  (c) Copyright 1996-2015 Board of Regents of the University of Wisconsin System
      on behalf of the Theoretical Chemistry Institute.  All rights reserved.

          Cite this program as:

          NBO 6.0.  E. D. Glendening, J. K. Badenhoop, A. E. Reed,
          J. E. Carpenter, J. A. Bohmann, C. M. Morales, C. R. Landis,
          and F. Weinhold (Theoretical Chemistry Institute, University
          of Wisconsin, Madison, WI, 2013); http://nbo6.chem.wisc.edu/

       /NPA    / : Natural Population Analysis
       /NBO    / : Natural Bond Orbital Analysis
       /AONBO  / : Write the AO to NBO transformation to lfn77
       /FILE   / : Set to 4376

 Filename set to 4376

 Job title:  *** NBO job generated by orca_scf

 Warning: MOs are non-orthogonal; program will continue

 Warning: -1837.09015 electrons reside outside the linearly independent MO space


 NATURAL POPULATIONS:  Natural atomic orbital occupancies

  NAO Atom No lang   Type(AO)    Occupancy      Energy
 -------------------------------------------------------
   1    O  1  s      Cor( 1s)     1.99972     -18.48111
   2    O  1  s      Val( 2s)     1.68959      -0.77960
   3    O  1  s      Ryd( 3s)     0.00163       1.48196
   4    O  1  px     Val( 2p)     1.59631      -0.26420
   5    O  1  px     Ryd( 3p)     0.00073       1.00832
   6    O  1  py     Val( 2p)     1.79998      -0.19523
   7    O  1  py     Ryd( 3p)     0.00210       1.14269
   8    O  1  pz     Val( 2p)     1.43315      -0.21348
   9    O  1  pz     Ryd( 3p)     0.00088       1.02813
  10    O  1  dxy    Ryd( 3d)     0.00223       2.81097
  11    O  1  dxz    Ryd( 3d)     0.00232       2.80135
  12    O  1  dyz    Ryd( 3d)     0.00011       2.57707
  13    O  1  dx2y2  Ryd( 3d)     0.00235       3.07503
  14    O  1  dz2    Ryd( 3d)     0.00089       2.73335

  15    C  2  s      Cor( 1s)     1.99915      -9.90168
  16    C  2  s      Val( 2s)     0.74869      -0.11724
  17    C  2  s      Ryd( 3s)     0.00543       0.50471
  18    C  2  px     Val( 2p)     0.77025       0.00400
  19    C  2  px     Ryd( 3p)     0.01757       0.61131
  20    C  2  py     Val( 2p)     0.83173      -0.03532
  21    C  2  py     Ryd( 3p)     0.00772       0.58344
  22    C  2  pz     Val( 2p)     0.84262      -0.12599
  23    C  2  pz     Ryd( 3p)     0.00320       0.50453
  24    C  2  dxy    Ryd( 3d)     0.00536       2.30128
  25    C  2  dxz    Ryd( 3d)     0.00316       1.99552
  26    C  2  dyz    Ryd( 3d)     0.00140       1.89106
  27    C  2  dx2y2  Ryd( 3d)     0.00267       2.31846
  28    C  2  dz2    Ryd( 3d)     0.00107       2.01694

  29    O  3  s      Cor( 1s)     1.99964     -18.59976
  30    O  3  s      Val( 2s)     1.60292      -0.78885
  31    O  3  s      Ryd( 3s)     0.00145       1.51412
  32    O  3  px     Val( 2p)     1.49332      -0.29229
  33    O  3  px     Ryd( 3p)     0.00152       1.38451
  34    O  3  py     Val( 2p)     1.68315      -0.29895
  35    O  3  py     Ryd( 3p)     0.00163       1.16554
  36    O  3  pz     Val( 2p)     1.74989      -0.27897
  37    O  3  pz     Ryd( 3p)     0.00129       1.09038
  38    O  3  dxy    Ryd( 3d)     0.00114       2.88384
  39    O  3  dxz    Ryd( 3d)     0.00070       2.75031
  40    O  3  dyz    Ryd( 3d)     0.00114       2.63348
  41    O  3  dx2y2  Ryd( 3d)     0.00122       2.89921
  42    O  3  dz2    Ryd( 3d)     0.00089       2.71133

  43    C  4  s      Cor( 1s)     1.99906      -9.85717
  44    C  4  s      Val( 2s)     1.00251      -0.22665
  45    C  4  s      Ryd( 3s)     0.00134       0.76163
  46    C  4  px     Val( 2p)     0.77831      -0.09224
  47    C  4  px     Ryd( 3p)     0.00483       0.50872
  48    C  4  py     Val( 2p)     1.14091      -0.09725
  49    C  4  py     Ryd( 3p)     0.00403       0.58036
  50    C  4  pz     Val( 2p)     1.14252      -0.09537
  51    C  4  pz     Ryd( 3p)     0.00216       0.62282
  52    C  4  dxy    Ryd( 3d)     0.00123       2.15038
  53    C  4  dxz    Ryd( 3d)     0.00133       2.04885
  54    C  4  dyz    Ryd( 3d)     0.00051       2.08603
  55    C  4  dx2y2  Ryd( 3d)     0.00143       2.11397
  56    C  4  dz2    Ryd( 3d)     0.00121       2.33865

  57    C  5  s      Cor( 1s)     1.99905      -9.80110
  58    C  5  s      Val( 2s)     1.02619      -0.22612
  59    C  5  s      Ryd( 3s)     0.00083       0.83987
  60    C  5  px     Val( 2p)     1.17669      -0.10011
  61    C  5  px     Ryd( 3p)     0.00314       0.55119
  62    C  5  py     Val( 2p)     1.06797      -0.10553
  63    C  5  py     Ryd( 3p)     0.00175       0.51323
  64    C  5  pz     Val( 2p)     1.23235      -0.09954
  65    C  5  pz     Ryd( 3p)     0.00185       0.66753
  66    C  5  dxy    Ryd( 3d)     0.00059       2.16521
  67    C  5  dxz    Ryd( 3d)     0.00058       2.23022
  68    C  5  dyz    Ryd( 3d)     0.00048       1.97100
  69    C  5  dx2y2  Ryd( 3d)     0.00060       2.12018
  70    C  5  dz2    Ryd( 3d)     0.00070       2.29688

  71    C  6  s      Cor( 1s)     1.99891      -9.80243
  72    C  6  s      Val( 2s)     0.95616      -0.17056
  73    C  6  s      Ryd( 3s)     0.00119       0.51805
  74    C  6  px     Val( 2p)     1.11211      -0.06474
  75    C  6  px     Ryd( 3p)     0.00335       0.59088
  76    C  6  py     Val( 2p)     1.12769      -0.07494
  77    C  6  py     Ryd( 3p)     0.00586       0.83710
  78    C  6  pz     Val( 2p)     0.94459      -0.13283
  79    C  6  pz     Ryd( 3p)     0.00195       0.52046
  80    C  6  dxy    Ryd( 3d)     0.00080       2.33413
  81    C  6  dxz    Ryd( 3d)     0.00079       1.91341
  82    C  6  dyz    Ryd( 3d)     0.00025       1.88857
  83    C  6  dx2y2  Ryd( 3d)     0.00079       2.30624
  84    C  6  dz2    Ryd( 3d)     0.00048       2.06869

  85    C  7  s      Cor( 1s)     1.99881      -9.78399
  86    C  7  s      Val( 2s)     0.98982      -0.16764
  87    C  7  s      Ryd( 3s)     0.00314       0.50545
  88    C  7  px     Val( 2p)     1.14333      -0.06654
  89    C  7  px     Ryd( 3p)     0.00480       0.69398
  90    C  7  py     Val( 2p)     1.16014      -0.07948
  91    C  7  py     Ryd( 3p)     0.00461       0.82175
  92    C  7  pz     Val( 2p)     1.03579      -0.12453
  93    C  7  pz     Ryd( 3p)     0.00101       0.53290
  94    C  7  dxy    Ryd( 3d)     0.00075       2.34892
  95    C  7  dxz    Ryd( 3d)     0.00065       1.91907
  96    C  7  dyz    Ryd( 3d)     0.00030       1.88595
  97    C  7  dx2y2  Ryd( 3d)     0.00076       2.28894
  98    C  7  dz2    Ryd( 3d)     0.00048       2.04472

  99    H  8  s      Val( 1s)     0.77250       0.05427
 100    H  8  s      Ryd( 2s)     0.00196       0.29000
 101    H  8  px     Ryd( 2p)     0.00019       1.75786
 102    H  8  py     Ryd( 2p)     0.00075       2.10494
 103    H  8  pz     Ryd( 2p)     0.00023       1.79450

 104    H  9  s      Val( 1s)     0.79292       0.04067
 105    H  9  s      Ryd( 2s)     0.00338       0.31073
 106    H  9  px     Ryd( 2p)     0.00014       1.67279
 107    H  9  py     Ryd( 2p)     0.00012       1.73745
 108    H  9  pz     Ryd( 2p)     0.00103       2.23290

 109    H 10  s      Val( 1s)     0.74469       0.04849
 110    H 10  s      Ryd( 2s)     0.00369       0.31245
 111    H 10  px     Ryd( 2p)     0.00015       1.78270
 112    H 10  py     Ryd( 2p)     0.00012       1.68521
 113    H 10  pz     Ryd( 2p)     0.00087       2.22362

 114    H 11  s      Val( 1s)     0.74384       0.04661
 115    H 11  s      Ryd( 2s)     0.00232       0.30662
 116    H 11  px     Ryd( 2p)     0.00065       2.13322
 117    H 11  py     Ryd( 2p)     0.00012       1.67065
 118    H 11  pz     Ryd( 2p)     0.00033       1.88213

 119    H 12  s      Val( 1s)     0.76787       0.05410
 120    H 12  s      Ryd( 2s)     0.00210       0.29129
 121    H 12  px     Ryd( 2p)     0.00028       1.95754
 122    H 12  py     Ryd( 2p)     0.00072       2.15971
 123    H 12  pz     Ryd( 2p)     0.00019       1.62017

 124    H 13  s      Val( 1s)     0.74985       0.07080
 125    H 13  s      Ryd( 2s)     0.00250       0.30207
 126    H 13  px     Ryd( 2p)     0.00036       2.01455
 127    H 13  py     Ryd( 2p)     0.00061       2.14937
 128    H 13  pz     Ryd( 2p)     0.00018       1.64357

   1 low occupancy (<1.9990e) core orbital  found on  C  6
   1 low occupancy (<1.9990e) core orbital  found on  C  7


 Summary of Natural Population Analysis:

                                     Natural Population
             Natural    ---------------------------------------------
  Atom No    Charge        Core      Valence    Rydberg      Total
 --------------------------------------------------------------------
    O  1   -0.53199      1.99972     6.51902    0.01324     8.53199
    C  2    0.75996      1.99915     3.19329    0.04760     5.24004
    O  3   -0.53989      1.99964     6.52927    0.01098     8.53989
    C  4   -0.08137      1.99906     4.06424    0.01807     6.08137
    C  5   -0.51276      1.99905     4.50320    0.01050     6.51276
    C  6   -0.15491      1.99891     4.14055    0.01545     6.15491
    C  7   -0.34437      1.99881     4.32907    0.01649     6.34437
    H  8    0.22437      0.00000     0.77250    0.00313     0.77563
    H  9    0.20240      0.00000     0.79292    0.00468     0.79760
    H 10    0.25048      0.00000     0.74469    0.00483     0.74952
    H 11    0.25274      0.00000     0.74384    0.00343     0.74726
    H 12    0.22884      0.00000     0.76787    0.00329     0.77116
    H 13    0.24650      0.00000     0.74985    0.00365     0.75350
 ====================================================================
 * Total *  0.00000     13.99434    37.85032    0.15534    52.00000

                                 Natural Population
 ---------------------------------------------------------
   Core                      13.99434 ( 99.9596% of   14)
   Valence                   37.85032 ( 99.6061% of   38)
   Natural Minimal Basis     51.84466 ( 99.7013% of   52)
   Natural Rydberg Basis      0.15534 (  0.2987% of   52)
 ---------------------------------------------------------

    Atom No         Natural Electron Configuration
 ----------------------------------------------------------------------------
      O  1      [core]2s( 1.69)2p( 4.83)3d( 0.01)
      C  2      [core]2s( 0.75)2p( 2.44)3s( 0.01)3p( 0.03)3d( 0.01)
      O  3      [core]2s( 1.60)2p( 4.93)3d( 0.01)
      C  4      [core]2s( 1.00)2p( 3.06)3p( 0.01)3d( 0.01)
      C  5      [core]2s( 1.03)2p( 3.48)3p( 0.01)
      C  6      [core]2s( 0.96)2p( 3.18)3p( 0.01)
      C  7      [core]2s( 0.99)2p( 3.34)3p( 0.01)
      H  8            1s( 0.77)
      H  9            1s( 0.79)
      H 10            1s( 0.74)
      H 11            1s( 0.74)
      H 12            1s( 0.77)
      H 13            1s( 0.75)


 NATURAL BOND ORBITAL ANALYSIS:

                            Occupancies       Lewis Structure    Low   High
         Max    Occ     -------------------  -----------------   occ   occ
  Cycle  Ctr   Thresh    Lewis   non-Lewis     CR  BD  nC  LP    (L)   (NL)
 ============================================================================
    1     2     1.90    49.14479   2.85521      7  13   0   6     4      4
    2     2     1.89    50.01323   1.98677      7  14   0   5     3      3
    3     2     1.88    50.01323   1.98677      7  14   0   5     3      3
    4     2     1.87    50.33027   1.66973      7  14   0   5     3      3
    5     2     1.83    50.74528   1.25472      7  15   0   4     2      2
    6     2     1.82    51.13738   0.86262      7  15   0   4     1      2
    7     2     1.78    51.14234   0.85766      7  15   0   4     0      2
    8     2     1.52    51.14234   0.85766      7  15   0   4     0      2
    9     2     1.78    51.14234   0.85766      7  15   0   4     0      2
 ----------------------------------------------------------------------------

 Structure accepted: No low occupancy Lewis orbitals

 -------------------------------------------------------
   Core                     13.99434 ( 99.960% of  14)
   Valence Lewis            37.14800 ( 97.758% of  38)
  ==================      =============================
   Total Lewis              51.14234 ( 98.351% of  52)
  -----------------------------------------------------
   Valence non-Lewis         0.74994 (  1.442% of  52)
   Rydberg non-Lewis         0.10772 (  0.207% of  52)
  ==================      =============================
   Total non-Lewis           0.85766 (  1.649% of  52)
 -------------------------------------------------------


     (Occupancy)   Bond orbital / Coefficients / Hybrids
 ------------------ Lewis ------------------------------------------------------
   1. (1.99972) CR ( 1) O  1            s(100.00%)
                                         1.0000  0.0000  0.0000  0.0000  0.0000
                                         0.0000  0.0000  0.0000  0.0000  0.0000
                                         0.0000  0.0000  0.0000  0.0000
   2. (1.99915) CR ( 1) C  2            s(100.00%)
                                         1.0000  0.0000  0.0000  0.0000  0.0000
                                         0.0000  0.0000  0.0000  0.0000  0.0000
                                         0.0000  0.0000  0.0000  0.0000
   3. (1.99964) CR ( 1) O  3            s(100.00%)
                                         1.0000  0.0000  0.0000  0.0000  0.0000
                                         0.0000  0.0000  0.0000  0.0000  0.0000
                                         0.0000  0.0000  0.0000  0.0000
   4. (1.99906) CR ( 1) C  4            s(100.00%)
                                         1.0000  0.0000  0.0000  0.0000  0.0000
                                         0.0000  0.0000  0.0000  0.0000  0.0000
                                         0.0000  0.0000  0.0000  0.0000
   5. (1.99905) CR ( 1) C  5            s(100.00%)
                                         1.0000  0.0000  0.0000  0.0000  0.0000
                                         0.0000  0.0000  0.0000  0.0000  0.0000
                                         0.0000  0.0000  0.0000  0.0000
   6. (1.99891) CR ( 1) C  6            s(100.00%)
                                         1.0000  0.0000  0.0000  0.0000  0.0000
                                         0.0000  0.0000  0.0000  0.0000  0.0000
                                         0.0000  0.0000  0.0000  0.0000
   7. (1.99881) CR ( 1) C  7            s(100.00%)
                                         1.0000  0.0000  0.0000  0.0000  0.0000
                                         0.0000  0.0000  0.0000  0.0000  0.0000
                                         0.0000  0.0000  0.0000  0.0000
   8. (1.97739) LP ( 1) O  1            s( 56.03%)p 0.78( 43.93%)d 0.00(  0.03%)
                                         0.0000  0.7484 -0.0145 -0.6473 -0.0038
                                         0.0052 -0.0014  0.1426  0.0006 -0.0003
                                         0.0069 -0.0012 -0.0135  0.0096
   9. (1.82909) LP ( 2) O  1            s(  0.03%)p99.99( 99.84%)d 3.88(  0.13%)
                                         0.0000  0.0180 -0.0014 -0.0407 -0.0002
                                        -0.9680 -0.0135 -0.2439 -0.0032 -0.0336
                                        -0.0085  0.0070 -0.0011  0.0029
  10. (1.95302) LP ( 1) O  3            s( 35.92%)p 1.78( 64.03%)d 0.00(  0.05%)
                                         0.0000  0.5993 -0.0005 -0.3390  0.0018
                                         0.6623 -0.0058  0.2944 -0.0024  0.0140
                                         0.0050 -0.0126  0.0105  0.0038
  11. (1.78889) LP ( 2) O  3            s(  0.72%)p99.99( 99.22%)d 0.09(  0.07%)
                                         0.0000  0.0845 -0.0034  0.3488 -0.0027
                                        -0.2919  0.0021  0.8862 -0.0011 -0.0092
                                         0.0018 -0.0167 -0.0035 -0.0173
  12. (1.99381) BD ( 1) O  1- C  2
               ( 66.15%)   0.8133* O  1 s( 43.39%)p 1.30( 56.42%)d 0.00(  0.19%)
                                         0.0000  0.6582  0.0250  0.7024 -0.0209
                                         0.0484 -0.0020 -0.2609  0.0050  0.0031
                                        -0.0183 -0.0016  0.0360 -0.0160
               ( 33.85%)   0.5818* C  2 s( 32.69%)p 2.05( 67.12%)d 0.01(  0.19%)
                                         0.0000  0.5704  0.0401 -0.8143 -0.0522
                                         0.0410  0.0197  0.0540  0.0202 -0.0027
                                        -0.0097  0.0013  0.0366 -0.0209
  13. (1.96933) BD ( 2) O  1- C  2
               ( 66.44%)   0.8151* O  1 s(  0.57%)p99.99( 99.26%)d 0.30(  0.17%)
                                         0.0000  0.0755  0.0051  0.2882 -0.0052
                                        -0.2431  0.0032  0.9221 -0.0114 -0.0095
                                         0.0348  0.0020  0.0127 -0.0160
               ( 33.56%)   0.5793* C  2 s(  0.46%)p99.99( 99.26%)d 0.60(  0.28%)
                                         0.0000  0.0669  0.0122  0.0990 -0.0081
                                        -0.2429  0.0129  0.9607 -0.0248  0.0120
                                        -0.0486 -0.0050 -0.0078  0.0143
  14. (1.99250) BD ( 1) C  2- O  3
               ( 30.54%)   0.5526* C  2 s( 26.60%)p 2.75( 73.13%)d 0.01(  0.27%)
                                         0.0000  0.5157  0.0031  0.4082 -0.0140
                                         0.7414  0.0492  0.1092  0.0212  0.0423
                                         0.0053  0.0076 -0.0171 -0.0239
               ( 69.46%)   0.8334* O  3 s( 33.43%)p 1.99( 66.49%)d 0.00(  0.08%)
                                         0.0000  0.5781  0.0033 -0.4223 -0.0139
                                        -0.6878 -0.0031 -0.1154  0.0043  0.0145
                                         0.0027  0.0114 -0.0179 -0.0118
  15. (1.98324) BD ( 1) C  2- C  7
               ( 47.90%)   0.6921* C  2 s( 39.84%)p 1.51( 60.12%)d 0.00(  0.05%)
                                         0.0000  0.6306 -0.0262  0.3955 -0.0362
                                        -0.6205 -0.0066 -0.2414  0.0051 -0.0176
                                        -0.0067  0.0079 -0.0056 -0.0061
               ( 52.10%)   0.7218* C  7 s( 30.92%)p 2.23( 69.03%)d 0.00(  0.05%)
                                         0.0000  0.5560 -0.0050 -0.4257 -0.0274
                                         0.6857 -0.0161  0.1947 -0.0031 -0.0128
                                        -0.0038  0.0105 -0.0102 -0.0102
  16. (1.98703) BD ( 1) O  3- C  4
               ( 68.57%)   0.8281* O  3 s( 29.91%)p 2.34( 70.02%)d 0.00(  0.07%)
                                         0.0000  0.5469  0.0051  0.7640  0.0038
                                         0.0466  0.0181 -0.3375  0.0017 -0.0085
                                        -0.0190  0.0066  0.0155 -0.0056
               ( 31.43%)   0.5606* C  4 s( 19.55%)p 4.10( 80.21%)d 0.01(  0.24%)
                                         0.0000  0.4417  0.0203 -0.8226 -0.0377
                                        -0.0771  0.0345  0.3411  0.0209  0.0090
                                        -0.0297 -0.0041  0.0350 -0.0149
  17. (1.98431) BD ( 1) C  4- C  5
               ( 48.87%)   0.6991* C  4 s( 31.11%)p 2.21( 68.85%)d 0.00(  0.04%)
                                         0.0000  0.5577 -0.0065  0.4472  0.0267
                                        -0.6664  0.0199  0.2080  0.0038 -0.0142
                                         0.0047 -0.0082 -0.0086 -0.0082
               ( 51.13%)   0.7150* C  5 s( 27.59%)p 2.62( 72.37%)d 0.00(  0.04%)
                                         0.0000  0.5252  0.0041 -0.4594  0.0157
                                         0.6952  0.0153 -0.1699  0.0014 -0.0153
                                         0.0057 -0.0057 -0.0024 -0.0092
  18. (1.98246) BD ( 1) C  4- H  8
               ( 61.49%)   0.7842* C  4 s( 24.63%)p 3.06( 75.33%)d 0.00(  0.04%)
                                         0.0000  0.4962  0.0101  0.3304 -0.0218
                                         0.7356 -0.0063  0.3201 -0.0087  0.0096
                                         0.0063  0.0115 -0.0105 -0.0044
               ( 38.51%)   0.6205* H  8 s( 99.88%)p 0.00(  0.12%)
                                         0.9994 -0.0034 -0.0131 -0.0293 -0.0111
  19. (1.98415) BD ( 1) C  4- H  9
               ( 60.80%)   0.7797* C  4 s( 24.64%)p 3.06( 75.32%)d 0.00(  0.04%)
                                         0.0000  0.4962 -0.0145 -0.0971  0.0035
                                         0.0830  0.0232 -0.8581  0.0058 -0.0006
                                         0.0045 -0.0008 -0.0011  0.0192
               ( 39.20%)   0.6261* H  9 s( 99.87%)p 0.00(  0.13%)
                                         0.9993 -0.0070  0.0031 -0.0047  0.0349
  20. (1.97550) BD ( 1) C  5- C  6
               ( 50.83%)   0.7129* C  5 s( 28.08%)p 2.56( 71.88%)d 0.00(  0.04%)
                                         0.0000  0.5299  0.0025 -0.4100  0.0169
                                        -0.7173 -0.0170 -0.1886  0.0024  0.0142
                                         0.0051  0.0072 -0.0055 -0.0090
               ( 49.17%)   0.7012* C  6 s( 32.86%)p 2.04( 67.09%)d 0.00(  0.04%)
                                         0.0000  0.5732  0.0004  0.4489  0.0339
                                         0.6581 -0.0244  0.1857 -0.0006  0.0125
                                         0.0036  0.0079 -0.0083 -0.0119
  21. (1.95742) BD ( 1) C  5- H 10
               ( 62.62%)   0.7913* C  5 s( 22.07%)p 3.53( 77.90%)d 0.00(  0.03%)
                                         0.0000  0.4698 -0.0042  0.2176  0.0119
                                        -0.0021 -0.0001  0.8552 -0.0080 -0.0004
                                         0.0050 -0.0018  0.0005  0.0167
               ( 37.38%)   0.6114* H 10 s( 99.89%)p 0.00(  0.11%)
                                         0.9994 -0.0063 -0.0088 -0.0002 -0.0327
  22. (1.96238) BD ( 1) C  5- H 11
               ( 62.51%)   0.7906* C  5 s( 22.20%)p 3.50( 77.76%)d 0.00(  0.03%)
                                         0.0000  0.4712 -0.0011  0.7568  0.0006
                                         0.0340  0.0000 -0.4511  0.0141  0.0012
                                        -0.0148 -0.0004  0.0103 -0.0003
               ( 37.49%)   0.6123* H 11 s( 99.89%)p 0.00(  0.11%)
                                         0.9995 -0.0030 -0.0284 -0.0013  0.0160
  23. (1.98164) BD ( 1) C  6- C  7
               ( 49.91%)   0.7065* C  6 s( 38.36%)p 1.61( 61.59%)d 0.00(  0.06%)
                                         0.0000  0.6192  0.0125 -0.7764 -0.0175
                                         0.0193 -0.0378 -0.1043 -0.0067 -0.0030
                                         0.0028  0.0012  0.0185 -0.0142
               ( 50.09%)   0.7078* C  7 s( 39.56%)p 1.53( 60.38%)d 0.00(  0.06%)
                                         0.0000  0.6286  0.0218  0.7736  0.0139
                                        -0.0121 -0.0339 -0.0614 -0.0066  0.0014
                                         0.0004  0.0020  0.0186 -0.0150
  24. (1.89521) BD ( 2) C  6- C  7
               ( 47.51%)   0.6893* C  6 s(  0.20%)p99.99( 99.73%)d 0.36(  0.07%)
                                         0.0000  0.0443  0.0076 -0.0999 -0.0040
                                        -0.2421  0.0016  0.9635 -0.0163  0.0063
                                        -0.0254  0.0048  0.0034 -0.0014
               ( 52.49%)   0.7245* C  7 s(  0.11%)p99.99( 99.83%)d 0.55(  0.06%)
                                         0.0000  0.0323  0.0060  0.0456  0.0028
                                        -0.2706  0.0030  0.9607 -0.0108 -0.0050
                                         0.0217  0.0078  0.0027  0.0050
  25. (1.97812) BD ( 1) C  6- H 12
               ( 61.78%)   0.7860* C  6 s( 28.44%)p 2.52( 71.53%)d 0.00(  0.03%)
                                         0.0000  0.5332 -0.0116  0.4286 -0.0046
                                        -0.7116  0.0043 -0.1588 -0.0009 -0.0118
                                        -0.0021  0.0045 -0.0076 -0.0081
               ( 38.22%)   0.6183* H 12 s( 99.89%)p 0.00(  0.11%)
                                         0.9995 -0.0036 -0.0153  0.0284  0.0059
  26. (1.97251) BD ( 1) C  7- H 13
               ( 62.47%)   0.7904* C  7 s( 29.33%)p 2.41( 70.64%)d 0.00(  0.03%)
                                         0.0000  0.5415 -0.0083 -0.4650 -0.0018
                                        -0.6749  0.0046 -0.1862 -0.0008  0.0118
                                         0.0028  0.0044 -0.0039 -0.0089
               ( 37.53%)   0.6126* H 13 s( 99.89%)p 0.00(  0.11%)
                                         0.9995 -0.0029  0.0182  0.0261  0.0066
 ---------------- non-Lewis ----------------------------------------------------
  27. (0.02341) BD*( 1) O  1- C  2
               ( 33.85%)   0.5818* O  1 s( 43.39%)p 1.30( 56.42%)d 0.00(  0.19%)
                                         0.0000 -0.6582 -0.0250 -0.7024  0.0209
                                        -0.0484  0.0020  0.2609 -0.0050 -0.0031
                                         0.0183  0.0016 -0.0360  0.0160
               ( 66.15%)  -0.8133* C  2 s( 32.69%)p 2.05( 67.12%)d 0.01(  0.19%)
                                         0.0000 -0.5704 -0.0401  0.8143  0.0522
                                        -0.0410 -0.0197 -0.0540 -0.0202  0.0027
                                         0.0097 -0.0013 -0.0366  0.0209
  28. (0.26037) BD*( 2) O  1- C  2
               ( 33.56%)   0.5793* O  1 s(  0.57%)p99.99( 99.26%)d 0.30(  0.17%)
                                         0.0000 -0.0755 -0.0051 -0.2882  0.0052
                                         0.2431 -0.0032 -0.9221  0.0114  0.0095
                                        -0.0348 -0.0020 -0.0127  0.0160
               ( 66.44%)  -0.8151* C  2 s(  0.46%)p99.99( 99.26%)d 0.60(  0.28%)
                                         0.0000 -0.0669 -0.0122 -0.0990  0.0081
                                         0.2429 -0.0129 -0.9607  0.0248 -0.0120
                                         0.0486  0.0050  0.0078 -0.0143
  29. (0.11600) BD*( 1) C  2- O  3
               ( 69.46%)   0.8334* C  2 s( 26.60%)p 2.75( 73.13%)d 0.01(  0.27%)
                                         0.0000  0.5157  0.0031  0.4082 -0.0140
                                         0.7414  0.0492  0.1092  0.0212  0.0423
                                         0.0053  0.0076 -0.0171 -0.0239
               ( 30.54%)  -0.5526* O  3 s( 33.43%)p 1.99( 66.49%)d 0.00(  0.08%)
                                         0.0000  0.5781  0.0033 -0.4223 -0.0139
                                        -0.6878 -0.0031 -0.1154  0.0043  0.0145
                                         0.0027  0.0114 -0.0179 -0.0118
  30. (0.07075) BD*( 1) C  2- C  7
               ( 52.10%)   0.7218* C  2 s( 39.84%)p 1.51( 60.12%)d 0.00(  0.05%)
                                         0.0000  0.6306 -0.0262  0.3955 -0.0362
                                        -0.6205 -0.0066 -0.2414  0.0051 -0.0176
                                        -0.0067  0.0079 -0.0056 -0.0061
               ( 47.90%)  -0.6921* C  7 s( 30.92%)p 2.23( 69.03%)d 0.00(  0.05%)
                                         0.0000  0.5560 -0.0050 -0.4257 -0.0274
                                         0.6857 -0.0161  0.1947 -0.0031 -0.0128
                                        -0.0038  0.0105 -0.0102 -0.0102
  31. (0.03401) BD*( 1) O  3- C  4
               ( 31.43%)   0.5606* O  3 s( 29.91%)p 2.34( 70.02%)d 0.00(  0.07%)
                                         0.0000 -0.5469 -0.0051 -0.7640 -0.0038
                                        -0.0466 -0.0181  0.3375 -0.0017  0.0085
                                         0.0190 -0.0066 -0.0155  0.0056
               ( 68.57%)  -0.8281* C  4 s( 19.55%)p 4.10( 80.21%)d 0.01(  0.24%)
                                         0.0000 -0.4417 -0.0203  0.8226  0.0377
                                         0.0771 -0.0345 -0.3411 -0.0209 -0.0090
                                         0.0297  0.0041 -0.0350  0.0149
  32. (0.02260) BD*( 1) C  4- C  5
               ( 51.13%)   0.7150* C  4 s( 31.11%)p 2.21( 68.85%)d 0.00(  0.04%)
                                         0.0000  0.5577 -0.0065  0.4472  0.0267
                                        -0.6664  0.0199  0.2080  0.0038 -0.0142
                                         0.0047 -0.0082 -0.0086 -0.0082
               ( 48.87%)  -0.6991* C  5 s( 27.59%)p 2.62( 72.37%)d 0.00(  0.04%)
                                         0.0000  0.5252  0.0041 -0.4594  0.0157
                                         0.6952  0.0153 -0.1699  0.0014 -0.0153
                                         0.0057 -0.0057 -0.0024 -0.0092
  33. (0.01636) BD*( 1) C  4- H  8
               ( 38.51%)   0.6205* C  4 s( 24.63%)p 3.06( 75.33%)d 0.00(  0.04%)
                                         0.0000 -0.4962 -0.0101 -0.3304  0.0218
                                        -0.7356  0.0063 -0.3201  0.0087 -0.0096
                                        -0.0063 -0.0115  0.0105  0.0044
               ( 61.49%)  -0.7842* H  8 s( 99.88%)p 0.00(  0.12%)
                                        -0.9994  0.0034  0.0131  0.0293  0.0111
  34. (0.02643) BD*( 1) C  4- H  9
               ( 39.20%)   0.6261* C  4 s( 24.64%)p 3.06( 75.32%)d 0.00(  0.04%)
                                         0.0000 -0.4962  0.0145  0.0971 -0.0035
                                        -0.0830 -0.0232  0.8581 -0.0058  0.0006
                                        -0.0045  0.0008  0.0011 -0.0192
               ( 60.80%)  -0.7797* H  9 s( 99.87%)p 0.00(  0.13%)
                                        -0.9993  0.0070 -0.0031  0.0047 -0.0349
  35. (0.02085) BD*( 1) C  5- C  6
               ( 49.17%)   0.7012* C  5 s( 28.08%)p 2.56( 71.88%)d 0.00(  0.04%)
                                         0.0000 -0.5299 -0.0025  0.4100 -0.0169
                                         0.7173  0.0170  0.1886 -0.0024 -0.0142
                                        -0.0051 -0.0072  0.0055  0.0090
               ( 50.83%)  -0.7129* C  6 s( 32.86%)p 2.04( 67.09%)d 0.00(  0.04%)
                                         0.0000 -0.5732 -0.0004 -0.4489 -0.0339
                                        -0.6581  0.0244 -0.1857  0.0006 -0.0125
                                        -0.0036 -0.0079  0.0083  0.0119
  36. (0.02213) BD*( 1) C  5- H 10
               ( 37.38%)   0.6114* C  5 s( 22.07%)p 3.53( 77.90%)d 0.00(  0.03%)
                                         0.0000 -0.4698  0.0042 -0.2176 -0.0119
                                         0.0021  0.0001 -0.8552  0.0080  0.0004
                                        -0.0050  0.0018 -0.0005 -0.0167
               ( 62.62%)  -0.7913* H 10 s( 99.89%)p 0.00(  0.11%)
                                        -0.9994  0.0063  0.0088  0.0002  0.0327
  37. (0.01438) BD*( 1) C  5- H 11
               ( 37.49%)   0.6123* C  5 s( 22.20%)p 3.50( 77.76%)d 0.00(  0.03%)
                                         0.0000 -0.4712  0.0011 -0.7568 -0.0006
                                        -0.0340  0.0000  0.4511 -0.0141 -0.0012
                                         0.0148  0.0004 -0.0103  0.0003
               ( 62.51%)  -0.7906* H 11 s( 99.89%)p 0.00(  0.11%)
                                        -0.9995  0.0030  0.0284  0.0013 -0.0160
  38. (0.01730) BD*( 1) C  6- C  7
               ( 50.09%)   0.7078* C  6 s( 38.36%)p 1.61( 61.59%)d 0.00(  0.06%)
                                         0.0000 -0.6192 -0.0125  0.7764  0.0175
                                        -0.0193  0.0378  0.1043  0.0067  0.0030
                                        -0.0028 -0.0012 -0.0185  0.0142
               ( 49.91%)  -0.7065* C  7 s( 39.56%)p 1.53( 60.38%)d 0.00(  0.06%)
                                         0.0000 -0.6286 -0.0218 -0.7736 -0.0139
                                         0.0121  0.0339  0.0614  0.0066 -0.0014
                                        -0.0004 -0.0020 -0.0186  0.0150
  39. (0.06839) BD*( 2) C  6- C  7
               ( 52.49%)   0.7245* C  6 s(  0.20%)p99.99( 99.73%)d 0.36(  0.07%)
                                         0.0000  0.0443  0.0076 -0.0999 -0.0040
                                        -0.2421  0.0016  0.9635 -0.0163  0.0063
                                        -0.0254  0.0048  0.0034 -0.0014
               ( 47.51%)  -0.6893* C  7 s(  0.11%)p99.99( 99.83%)d 0.55(  0.06%)
                                         0.0000  0.0323  0.0060  0.0456  0.0028
                                        -0.2706  0.0030  0.9607 -0.0108 -0.0050
                                         0.0217  0.0078  0.0027  0.0050
  40. (0.02036) BD*( 1) C  6- H 12
               ( 38.22%)   0.6183* C  6 s( 28.44%)p 2.52( 71.53%)d 0.00(  0.03%)
                                         0.0000 -0.5332  0.0116 -0.4286  0.0046
                                         0.7116 -0.0043  0.1588  0.0009  0.0118
                                         0.0021 -0.0045  0.0076  0.0081
               ( 61.78%)  -0.7860* H 12 s( 99.89%)p 0.00(  0.11%)
                                        -0.9995  0.0036  0.0153 -0.0284 -0.0059
  41. (0.01660) BD*( 1) C  7- H 13
               ( 37.53%)   0.6126* C  7 s( 29.33%)p 2.41( 70.64%)d 0.00(  0.03%)
                                         0.0000 -0.5415  0.0083  0.4650  0.0018
                                         0.6749 -0.0046  0.1862  0.0008 -0.0118
                                        -0.0028 -0.0044  0.0039  0.0089
               ( 62.47%)  -0.7904* H 13 s( 99.89%)p 0.00(  0.11%)
                                        -0.9995  0.0029 -0.0182 -0.0261 -0.0066
  42. (0.00183) RY ( 1) O  1            s(  0.01%)p 1.00( 98.42%)d 0.02(  1.57%)
                                         0.0000 -0.0032  0.0070 -0.0009 -0.0627
                                         0.0089 -0.9688  0.0031 -0.2041  0.1147
                                         0.0298 -0.0336  0.0240 -0.0004
  43. (0.00085) RY ( 2) O  1            s(  0.23%)p99.99( 96.92%)d12.16(  2.84%)
                                         0.0000 -0.0004  0.0484 -0.0057 -0.1812
                                         0.0059  0.2077 -0.0173 -0.9449 -0.0602
                                         0.1351  0.0550  0.0536 -0.0255
  44. (0.00041) RY ( 3) O  1            s( 96.37%)p 0.02(  1.61%)d 0.02(  2.02%)
                                         0.0000 -0.0059  0.9817 -0.0248 -0.1061
                                        -0.0028  0.0010  0.0036  0.0653  0.0384
                                         0.0147  0.0305 -0.1314 -0.0171
  45. (0.00009) RY ( 4) O  1            s(  1.14%)p84.87( 96.94%)d 1.68(  1.92%)
  46. (0.00004) RY ( 5) O  1            s(  1.93%)p 0.70(  1.35%)d50.18( 96.72%)
  47. (0.00001) RY ( 6) O  1            s(  0.00%)p 1.00(  0.31%)d99.99( 99.69%)
  48. (0.00000) RY ( 7) O  1            s(  0.03%)p69.35(  1.96%)d99.99( 98.01%)
  49. (0.00000) RY ( 8) O  1            s(  0.24%)p 0.91(  0.22%)d99.99( 99.53%)
  50. (0.00000) RY ( 9) O  1            s(  0.02%)p99.99(  2.80%)d99.99( 97.18%)
  51. (0.01625) RY ( 1) C  2            s( 12.41%)p 7.04( 87.44%)d 0.01(  0.14%)
                                         0.0000 -0.0681  0.3457  0.0348 -0.8963
                                        -0.0071  0.1610 -0.0086  0.2096  0.0292
                                         0.0206  0.0049  0.0084  0.0066
  52. (0.01194) RY ( 2) C  2            s(  0.45%)p99.99( 59.82%)d88.87( 39.74%)
                                         0.0000 -0.0233  0.0627 -0.0081  0.2222
                                        -0.0617  0.7079 -0.0189  0.2083  0.6020
                                         0.0694 -0.1279  0.0354 -0.1117
  53. (0.00418) RY ( 3) C  2            s(  1.32%)p 1.68(  2.22%)d72.99( 96.46%)
                                         0.0000 -0.0011  0.1150 -0.0034  0.0365
                                         0.0157  0.1329 -0.0482 -0.0251 -0.0955
                                        -0.8677 -0.3212 -0.2716  0.1603
  54. (0.00314) RY ( 4) C  2            s( 18.40%)p 1.14( 20.95%)d 3.30( 60.65%)
                                         0.0000 -0.0024  0.4289  0.0409  0.2586
                                        -0.0004  0.3041  0.0061  0.2201 -0.5964
                                        -0.0002  0.0399  0.4991 -0.0122
  55. (0.00221) RY ( 5) C  2            s( 44.01%)p 0.63( 27.69%)d 0.64( 28.31%)
                                         0.0000  0.0149  0.6632  0.0291  0.1280
                                        -0.0070 -0.4309 -0.0183 -0.2713  0.4069
                                        -0.0330 -0.2035  0.2434 -0.1254
  56. (0.00173) RY ( 6) C  2            s(  4.90%)p 7.45( 36.51%)d11.95( 58.59%)
                                         0.0000  0.0053  0.2213 -0.0072  0.1672
                                        -0.0154 -0.2004  0.0243  0.5441 -0.1551
                                         0.2443 -0.3172 -0.5615 -0.2937
  57. (0.00084) RY ( 7) C  2            s( 17.54%)p 0.45(  7.91%)d 4.25( 74.56%)
                                         0.0000  0.0072  0.4187 -0.0122  0.1439
                                        -0.0124  0.1484 -0.0151 -0.1892 -0.0033
                                         0.0232  0.6863 -0.4948  0.1711
  58. (0.00032) RY ( 8) C  2            s(  0.31%)p99.99( 57.52%)d99.99( 42.18%)
                                         0.0000  0.0021  0.0553 -0.0045 -0.0866
                                         0.0006  0.3335 -0.0057 -0.6756 -0.2828
                                         0.2582 -0.3710 -0.2229 -0.2963
  59. (0.00003) RY ( 9) C  2            s(  1.08%)p 0.30(  0.33%)d91.25( 98.59%)
  60. (0.00222) RY ( 1) O  3            s(  4.63%)p19.85( 91.96%)d 0.74(  3.41%)
                                         0.0000  0.0064  0.2151  0.0025  0.6910
                                        -0.0058 -0.6143 -0.0010  0.2547 -0.1597
                                         0.0328  0.0515  0.0030 -0.0694
  61. (0.00178) RY ( 2) O  3            s( 54.65%)p 0.60( 33.01%)d 0.23( 12.34%)
                                         0.0000 -0.0106  0.7392 -0.0048 -0.1318
                                         0.0018  0.2685  0.0042  0.4905  0.2167
                                        -0.0110 -0.0905  0.2060 -0.1603
  62. (0.00114) RY ( 3) O  3            s( 32.89%)p 1.87( 61.55%)d 0.17(  5.56%)
                                         0.0000  0.0003  0.5735 -0.0017 -0.0667
                                        -0.0061 -0.1927  0.0027 -0.7575 -0.0668
                                        -0.1468 -0.0016  0.1154  0.1277
  63. (0.00025) RY ( 4) O  3            s(  0.49%)p99.99( 63.08%)d74.83( 36.44%)
                                         0.0000 -0.0017  0.0698  0.0020  0.5490
                                         0.0020  0.5012  0.0040 -0.2796  0.3141
                                         0.3732  0.2510 -0.2030 -0.1489
  64. (0.00019) RY ( 5) O  3            s(  0.09%)p86.48(  8.06%)d99.99( 91.85%)
                                         0.0000 -0.0012  0.0305 -0.0018  0.2446
                                        -0.0006  0.1406 -0.0004  0.0307  0.2352
                                        -0.6267 -0.4162 -0.4944  0.2296
  65. (0.00009) RY ( 6) O  3            s(  0.22%)p99.99( 33.75%)d99.99( 66.02%)
  66. (0.00003) RY ( 7) O  3            s(  7.02%)p 0.80(  5.60%)d12.45( 87.38%)
  67. (0.00001) RY ( 8) O  3            s(  0.01%)p86.58(  0.88%)d99.99( 99.11%)
  68. (0.00001) RY ( 9) O  3            s(  0.02%)p99.99(  2.36%)d99.99( 97.62%)
  69. (0.00375) RY ( 1) C  4            s(  1.84%)p44.65( 82.06%)d 8.76( 16.11%)
                                         0.0000 -0.0175  0.1344  0.0425 -0.8736
                                        -0.0277  0.1678 -0.0176  0.1625  0.3690
                                        -0.0396 -0.1251 -0.0849  0.0223
  70. (0.00353) RY ( 2) C  4            s(  4.35%)p20.03( 87.23%)d 1.93(  8.41%)
                                         0.0000  0.0286  0.2067 -0.0232 -0.1564
                                        -0.0294 -0.7196 -0.0147 -0.5730  0.1358
                                        -0.0276  0.1021 -0.1751 -0.1545
  71. (0.00161) RY ( 3) C  4            s( 14.12%)p 1.37( 19.29%)d 4.72( 66.59%)
                                         0.0000 -0.0139  0.3755  0.0223 -0.1336
                                         0.0009  0.3214 -0.0219 -0.2661 -0.2546
                                         0.2445  0.1966  0.4621 -0.5377
  72. (0.00100) RY ( 4) C  4            s(  0.48%)p57.67( 27.54%)d99.99( 71.99%)
                                         0.0000  0.0095  0.0684 -0.0209  0.1269
                                        -0.0001 -0.2827  0.0001  0.4230  0.2231
                                         0.7311 -0.2241 -0.0746 -0.2824
  73. (0.00057) RY ( 5) C  4            s( 35.86%)p 0.99( 35.54%)d 0.80( 28.60%)
                                         0.0000  0.0026  0.5988  0.0162 -0.0501
                                        -0.0001 -0.3163 -0.0147  0.5023 -0.4437
                                        -0.2796  0.0106  0.0239  0.1015
  74. (0.00026) RY ( 6) C  4            s(  0.25%)p33.35(  8.37%)d99.99( 91.38%)
                                         0.0000  0.0013  0.0501  0.0327  0.1923
                                         0.0021 -0.1836 -0.0110  0.1086  0.5352
                                        -0.3370 -0.1764  0.6929 -0.0501
  75. (0.00016) RY ( 7) C  4            s( 37.48%)p 0.55( 20.62%)d 1.12( 41.90%)
                                         0.0000 -0.0028  0.6122 -0.0071  0.2376
                                        -0.0018  0.2713  0.0080 -0.2757  0.2588
                                         0.2293 -0.1576 -0.0857  0.5170
  76. (0.00010) RY ( 8) C  4            s(  5.08%)p 2.87( 14.59%)d15.82( 80.34%)
  77. (0.00001) RY ( 9) C  4            s(  0.62%)p 8.22(  5.06%)d99.99( 94.32%)
  78. (0.00355) RY ( 1) C  5            s(  6.08%)p14.40( 87.56%)d 1.05(  6.36%)
                                         0.0000  0.0151  0.2461 -0.0125 -0.7699
                                        -0.0037  0.2019  0.0151  0.4917  0.0834
                                        -0.1053  0.0687  0.1337 -0.1514
  79. (0.00162) RY ( 2) C  5            s(  5.74%)p11.18( 64.20%)d 5.23( 30.06%)
                                         0.0000 -0.0141  0.2392  0.0044  0.4655
                                         0.0041 -0.1559  0.0144  0.6330 -0.0255
                                        -0.3044 -0.0302 -0.3655 -0.2698
  80. (0.00121) RY ( 3) C  5            s(  2.07%)p46.61( 96.58%)d 0.65(  1.35%)
                                         0.0000  0.0051  0.1439 -0.0017 -0.2586
                                         0.0205 -0.9463  0.0001 -0.0546  0.0079
                                         0.0535 -0.0946  0.0070  0.0399
  81. (0.00075) RY ( 4) C  5            s( 53.97%)p 0.23( 12.26%)d 0.63( 33.77%)
                                         0.0000  0.0017  0.7346  0.0130 -0.0174
                                        -0.0005  0.1032 -0.0039 -0.3338 -0.0966
                                         0.1884  0.4043 -0.3594  0.0165
  82. (0.00031) RY ( 5) C  5            s( 10.29%)p 0.68(  7.03%)d 8.04( 82.69%)
                                         0.0000  0.0019  0.3207  0.0037 -0.0523
                                        -0.0079  0.1582 -0.0014 -0.2059  0.1799
                                        -0.0094 -0.8745 -0.1463 -0.0909
  83. (0.00015) RY ( 6) C  5            s(  9.60%)p 0.20(  1.94%)d 9.22( 88.46%)
                                         0.0000 -0.0035  0.3098 -0.0056  0.1322
                                        -0.0172  0.0080  0.0037 -0.0387 -0.6828
                                        -0.2523 -0.1169  0.5837 -0.0211
  84. (0.00007) RY ( 7) C  5            s( 12.16%)p 1.08( 13.16%)d 6.14( 74.68%)
  85. (0.00004) RY ( 8) C  5            s(  0.02%)p99.99( 15.47%)d99.99( 84.51%)
  86. (0.00000) RY ( 9) C  5            s(  0.13%)p14.89(  1.91%)d99.99( 97.97%)
  87. (0.00485) RY ( 1) C  6            s(  0.21%)p99.99( 89.58%)d48.49( 10.21%)
                                         0.0000  0.0341 -0.0307 -0.0160 -0.2121
                                         0.0288  0.9154  0.0035  0.1086 -0.2708
                                        -0.0921 -0.0130 -0.1399 -0.0232
  88. (0.00248) RY ( 2) C  6            s( 11.81%)p 6.66( 78.73%)d 0.80(  9.46%)
                                         0.0000 -0.0038  0.3437  0.0223 -0.4800
                                         0.0133 -0.0261 -0.0164 -0.7451  0.0860
                                        -0.2000 -0.1467 -0.0984 -0.1264
  89. (0.00189) RY ( 3) C  6            s(  2.39%)p36.38( 86.78%)d 4.54( 10.83%)
                                         0.0000  0.0013  0.1544 -0.0202  0.8146
                                        -0.0160  0.2740 -0.0162 -0.3582  0.1545
                                        -0.1874 -0.1553  0.1034 -0.1205
  90. (0.00059) RY ( 4) C  6            s( 78.38%)p 0.17( 13.03%)d 0.11(  8.60%)
                                         0.0000 -0.0009  0.8853  0.0076  0.0141
                                        -0.0114  0.0440 -0.0002  0.3577  0.1529
                                         0.1683  0.1615 -0.0649 -0.0627
  91. (0.00020) RY ( 5) C  6            s(  1.48%)p 3.83(  5.69%)d62.56( 92.83%)
                                         0.0000 -0.0017  0.1218  0.0253 -0.1495
                                         0.0088 -0.0203 -0.0042  0.1827 -0.1803
                                        -0.3687 -0.2082  0.8382 -0.1183
  92. (0.00008) RY ( 6) C  6            s(  1.26%)p10.47( 13.17%)d68.02( 85.57%)
  93. (0.00006) RY ( 7) C  6            s(  3.25%)p 3.30( 10.72%)d26.51( 86.03%)
  94. (0.00001) RY ( 8) C  6            s(  1.22%)p 0.34(  0.42%)d80.52( 98.36%)
  95. (0.00001) RY ( 9) C  6            s(  0.14%)p13.47(  1.94%)d99.99( 97.91%)
  96. (0.00397) RY ( 1) C  7            s(  1.04%)p90.05( 93.91%)d 4.84(  5.04%)
                                         0.0000  0.0199  0.1002 -0.0105  0.7967
                                         0.0268  0.5506  0.0026 -0.0210  0.2133
                                         0.0514 -0.0197  0.0383 -0.0211
  97. (0.00394) RY ( 2) C  7            s( 17.13%)p 4.74( 81.25%)d 0.09(  1.62%)
                                         0.0000  0.0128  0.4137  0.0172 -0.5427
                                         0.0013  0.6716 -0.0008  0.2580  0.1103
                                         0.0083  0.0084  0.0568 -0.0265
  98. (0.00239) RY ( 3) C  7            s( 74.68%)p 0.21( 15.88%)d 0.13(  9.44%)
                                         0.0000 -0.0159  0.8640 -0.0356  0.1576
                                        -0.0048 -0.3234 -0.0048 -0.1674 -0.2021
                                        -0.0836 -0.0562  0.2025 -0.0488
  99. (0.00070) RY ( 4) C  7            s(  0.34%)p99.99( 77.42%)d65.34( 22.24%)
                                         0.0000  0.0011  0.0583 -0.0064  0.1683
                                        -0.0021 -0.2399  0.0130  0.8295  0.1478
                                        -0.2961  0.2588  0.0681  0.2031
 100. (0.00019) RY ( 5) C  7            s(  2.68%)p 4.12( 11.04%)d32.19( 86.28%)
                                         0.0000 -0.0012  0.1637  0.0035  0.0749
                                         0.0014 -0.0991 -0.0122  0.3079 -0.1581
                                         0.7249 -0.0181 -0.5488 -0.1038
 101. (0.00012) RY ( 6) C  7            s(  1.74%)p 2.64(  4.60%)d53.70( 93.65%)
                                         0.0000  0.0013  0.1321  0.0158  0.0116
                                        -0.0089  0.0789  0.0045 -0.1983 -0.0356
                                        -0.5143  0.2780 -0.7695  0.0355
 102. (0.00011) RY ( 7) C  7            s(  2.21%)p 4.82( 10.67%)d39.39( 87.12%)
                                         0.0000 -0.0083  0.1485 -0.0057 -0.1032
                                         0.0102 -0.2411  0.0013 -0.1942  0.9057
                                         0.1766  0.0672 -0.0824  0.0917
 103. (0.00002) RY ( 8) C  7            s(  0.03%)p99.99(  3.10%)d99.99( 96.87%)
 104. (0.00001) RY ( 9) C  7            s(  0.23%)p 9.90(  2.24%)d99.99( 97.53%)
 105. (0.00197) RY ( 1) H  8            s( 99.77%)p 0.00(  0.23%)
                                         0.0049  0.9988  0.0215  0.0432  0.0001
 106. (0.00013) RY ( 2) H  8            s(  0.03%)p99.99( 99.97%)
                                         0.0155 -0.0074  0.2110  0.0633  0.9753
 107. (0.00009) RY ( 3) H  8            s(  0.05%)p99.99( 99.95%)
[...]
  1 C                -0.0       2.2      -0.5      -0.6       0.6     -16.4
  2 O                -0.0       0.2       0.0      -0.1      -0.2      -1.8
  3 C                -0.7       0.2      -0.1      -0.1      -0.0      -0.4
  4 C                44.3       1.6       0.0       0.4      -0.8       0.0
  5 C                -0.2      47.2      52.3      43.5       1.1      -0.0
  6 C                -0.3      49.3      48.1       0.9      43.6       0.7
  9 H                 0.0      -0.1      -0.0      -0.0      -0.0      -0.0
 10 H                56.9      -0.2      -0.0       0.0       0.0      -0.0
 11 H                 0.0      -0.0       0.1      56.0       0.0      -0.0
 12 H                 0.0       0.2       0.1       0.0      55.7      -0.1

                     42        43        44        45        46        47   
                   0.00000   0.00000   0.00000   0.00000   0.00000   0.00000
                   0.00085   0.00041   0.00009   0.00004   0.00001   0.00000
                  --------  --------  --------  --------  --------  --------
  0 O               105.5     137.9     105.0     103.3     100.3     103.4
  1 C                -4.6     -31.4      -4.8      -2.9      -0.2      -2.5
  2 O                -0.4      -2.5      -0.2      -0.1      -0.0      -0.4
  3 C                -0.2      -1.3      -0.0      -0.0      -0.0      -0.0
  4 C                -0.1      -0.2      -0.0      -0.0      -0.0      -0.0
  5 C                -0.0       0.3      -0.0       0.0      -0.0       0.0
  6 C                -0.2      -2.4       0.0      -0.2      -0.0      -0.4
 12 H                -0.0      -0.2      -0.0      -0.0      -0.0       0.0

                     48        49        50        51        52        53   
                   0.00000   0.00000   0.00000   0.00000   0.00000   0.00000
                   0.00000   0.00000   0.01625   0.01194   0.00418   0.00314
                  --------  --------  --------  --------  --------  --------
  0 O               100.7     103.2     -42.9     -12.4      -2.4      -1.5
  1 C                -0.6      -3.1     163.2     151.6     106.4     137.8
  2 O                -0.0      -0.1      -4.2     -12.2      -3.0     -18.9
  3 C                -0.0      -0.0      -2.0      -5.1      -0.1      -5.5
  4 C                -0.0      -0.0       0.2      -0.4      -0.2      -1.2
  5 C                -0.0      -0.0       1.0      -2.3      -0.0       1.0
  6 C                -0.0      -0.0     -15.0     -20.7      -0.7     -11.3
 11 H                -0.0      -0.0      -0.1      -0.0      -0.0       0.0
 12 H                -0.0      -0.0      -0.1       1.4       0.0      -0.3

                     54        55        56        57        58        59   
                   0.00000   0.00000   0.00000   0.00000   0.00000   0.00000
                   0.00221   0.00173   0.00084   0.00032   0.00003   0.00222
                  --------  --------  --------  --------  --------  --------
  0 O                -7.1      -3.9      -0.8      -1.8      -0.0      -1.3
  1 C               222.1     117.0     123.4     111.1     103.1      -8.0
  2 O                -4.4      -3.2      -1.6      -0.9      -1.3     114.9
  3 C                -1.1       0.5      -0.9      -1.8      -0.3      -6.7
  4 C                -3.0      -0.9      -1.0      -0.3      -0.1       1.1
  5 C                 3.4       0.9       2.0       0.1       0.1      -0.2
  6 C              -108.2     -10.1     -20.7      -6.3      -1.4       0.6
  7 H                -0.0      -0.0      -0.1      -0.0      -0.0      -0.2
  8 H                 0.0      -0.1      -0.2       0.0      -0.0      -0.1
 11 H                 0.2       0.0       0.0      -0.0      -0.0      -0.0
 12 H                -2.0      -0.1      -0.2      -0.1      -0.0      -0.0

                     60        61        62        63        64        65   
                   0.00000   0.00000   0.00000   0.00000   0.00000   0.00000
                   0.00178   0.00114   0.00025   0.00019   0.00009   0.00003
                  --------  --------  --------  --------  --------  --------
  0 O                -1.4      -1.7      -0.3      -0.0      -0.3      -0.4
  1 C               -11.8      -8.4      -8.2      -1.5      -3.8      -3.5
  2 O               122.1     116.3     121.4     103.9     109.3     106.4
  3 C                -6.1      -5.4     -11.0      -2.3      -4.3      -1.7
  4 C                -0.0      -0.1      -0.3       0.1      -0.3      -0.1
  5 C                -0.4      -0.3      -0.2      -0.0      -0.0      -0.1
  6 C                -2.2      -0.3      -1.6      -0.1      -0.7      -0.5
  7 H                 0.1      -0.2       0.4       0.0       0.3      -0.1
  8 H                -0.2       0.2      -0.1      -0.0      -0.1      -0.0

                     66        67        68        69        70        71   
                   0.00000   0.00000   0.00000   0.00000   0.00000   0.00000
                   0.00001   0.00001   0.00375   0.00353   0.00161   0.00100
                  --------  --------  --------  --------  --------  --------
  0 O                -0.1      -0.0      -0.4      -0.6      -0.1       0.0
  1 C                -0.6      -0.7      -8.2      -3.5      -0.7       0.3
  2 O               101.2     101.3     -12.0      -3.3      -0.5      -4.0
  3 C                -0.3      -0.4     135.1     152.9     121.6     122.3
  4 C                -0.0      -0.1     -10.0     -18.4      -0.8     -11.8
  5 C                -0.0      -0.0      -0.6      -1.0      -0.2       1.2
  6 C                -0.1      -0.0      -0.4      -2.4      -0.1      -0.6
  7 H                -0.0      -0.0      -1.8     -13.1      -6.3      -1.6
  8 H                -0.0      -0.0      -1.3     -10.7     -12.8      -5.6
  9 H                -0.0      -0.0      -0.1      -0.0      -0.1      -0.3
 10 H                -0.0      -0.0      -0.5       0.4      -0.1       0.1
 11 H                -0.0      -0.0      -0.0      -0.2      -0.0      -0.0
 12 H                -0.0      -0.0      -0.0      -0.1      -0.0      -0.0

                     72        73        74        75        76        77   
                   0.00000   0.00000   0.00000   0.00000   0.00000   0.00000
                   0.00057   0.00026   0.00016   0.00010   0.00001   0.00355
                  --------  --------  --------  --------  --------  --------
  0 O                -0.7      -0.0      -0.1      -0.0      -0.0      -0.2
  1 C                -4.6      -0.2      -0.2      -0.3       0.1      -3.6
  2 O               -10.1      -2.4      -4.1      -0.4      -0.7       0.3
  3 C               172.1     111.2     163.7     126.7     107.5     -29.6
  4 C               -49.2      -7.6     -23.7      -9.4      -1.5     166.2
  5 C                 2.2       0.4       0.4      -0.9      -0.0     -22.8
  6 C                -2.1      -0.1      -0.1       0.6      -0.2       5.4
  7 H                -8.4      -0.8     -16.6     -13.2      -2.4       0.5
  8 H                 0.3      -0.5     -20.1      -3.3      -2.8      -0.3
  9 H                 0.7      -0.0      -0.0       0.2      -0.0      -6.6
 10 H                -0.0      -0.0       0.9       0.0       0.1      -9.4

                     78        79        80        81        82        83   
                   0.00000   0.00000   0.00000   0.00000   0.00000   0.00000
                   0.00162   0.00121   0.00075   0.00031   0.00015   0.00007
                  --------  --------  --------  --------  --------  --------
  1 C                -0.0      -1.4      -1.4      -0.3      -0.3      -0.0
  2 O                -0.2      -0.5       0.2       0.3      -0.0      -0.2
  3 C                -4.1     -15.1     -50.7     -14.1      -4.4      -6.1
  4 C               133.1     179.8     212.1     127.8     125.0     126.7
  5 C                -4.1     -57.3     -43.0      -7.5     -10.7      -5.0
  6 C                -0.0      -2.8       4.0       0.4       0.1      -0.2
  7 H                -0.2      -0.1       0.1       0.3       0.2       0.2
  8 H                -0.2      -0.3       1.0      -0.4      -0.0      -0.0
  9 H               -20.5      -0.4      -2.6      -2.8      -2.4      -9.1
 10 H                -3.5      -1.1     -19.0      -3.6      -7.2      -6.4
 11 H                -0.2      -0.7      -0.8      -0.1      -0.2       0.1

                     84        85        86        87        88        89   
                   0.00000   0.00000   0.00000   0.00000   0.00000   0.00000
                   0.00004   0.00000   0.00485   0.00248   0.00189   0.00059
                  --------  --------  --------  --------  --------  --------
  0 O                -0.0      -0.0      -0.0       0.1      -0.1       0.2
  1 C                -0.1      -0.0       2.5      -1.0      -3.6       7.8
  2 O                -0.1      -0.0      -0.0      -0.3      -0.1      -0.5
  3 C                -2.5      -2.2       0.3      -1.0      -0.9       3.3
  4 C               118.2     107.9     -20.9      -8.3     -39.7     -68.8
  5 C                -1.6      -1.4     178.9     184.0     177.6     268.3
  6 C                -0.1       0.1     -28.6     -71.2     -29.8    -102.2
  7 H                 0.1      -0.0      -0.2      -0.0       0.0      -0.2
  8 H                 0.2       0.0       0.1      -0.1      -0.2      -0.0
  9 H                -9.0      -2.0       0.0       0.0       0.0      -1.0
 10 H                -5.2      -2.3      -0.1       0.0       0.8       0.0
 11 H                 0.1      -0.0     -32.8      -1.7      -4.4      -5.2
 12 H                 0.0      -0.0       0.9      -0.7       0.4      -1.8

                     90        91        92        93        94        95   
                   0.00000   0.00000   0.00000   0.00000   0.00000   0.00000
                   0.00020   0.00008   0.00006   0.00001   0.00001   0.00397
                  --------  --------  --------  --------  --------  --------
  0 O                 0.0      -0.0      -0.0      -0.0      -0.0      -0.9
  1 C                -0.1      -0.0       0.1       0.1      -0.0     -22.2
  2 O                -0.0      -0.0      -0.0      -0.0      -0.0      -1.8
  3 C                -0.1       0.4      -0.1      -0.0      -0.3      -2.1
  4 C                -2.8      -6.3      -3.6      -2.0      -1.2       5.3
  5 C               111.0     109.9     120.9     108.2     105.0     -60.5
  6 C                -5.8      -3.1      -5.4      -2.9      -1.1     208.8
  8 H                -0.0      -0.1       0.0      -0.0      -0.0      -0.0
  9 H                -0.0       0.2      -0.1       0.0       0.0       0.1
 10 H                 0.2       0.1       0.0      -0.0      -0.0       0.0
 11 H                -2.3      -0.9     -11.9      -3.3      -2.3      -1.3
 12 H                -0.0      -0.0      -0.0      -0.1       0.0     -25.4

                     96        97        98        99       100       101   
                   0.00000   0.00000   0.00000   0.00000   0.00000   0.00000
                   0.00394   0.00239   0.00070   0.00019   0.00012   0.00011
                  --------  --------  --------  --------  --------  --------
  0 O                 0.2      -0.9      -0.0      -0.1      -0.1      -0.4
  1 C              -121.3     -25.9      -4.2      -3.7      -2.4      -2.9
  2 O                -2.2      -0.7      -0.2      -0.1      -0.0      -0.0
  3 C                -2.8      -0.9      -0.2      -0.1      -0.1       0.2
  4 C                -0.4       1.9      -0.1       0.6       0.1       0.2
  5 C               -29.3    -125.5     -11.6      -9.7      -6.4      -7.1
  6 C               255.4     272.4     117.2     114.6     110.3     121.5
  8 H                -0.1      -0.2       0.0      -0.0      -0.0      -0.0
 11 H                 1.8      -0.9      -0.1      -0.1      -0.0       0.1
 12 H                -1.3     -19.4      -0.7      -1.3      -1.5     -11.5

                    102       103       104       105       106       107   
                   0.00000   0.00000   0.00000   0.00000   0.00000   0.00000
                   0.00002   0.00001   0.00197   0.00013   0.00009   0.00003
                  --------  --------  --------  --------  --------  --------
  1 C                -0.8      -1.0      -0.2      -0.0      -0.1      -0.0
  2 O                -0.1      -0.0       0.4      -0.2      -0.1      -0.5
  3 C                -0.1      -0.2     -41.9      -4.6      -3.7      -5.8
  4 C                -0.0      -0.1       1.0       0.1      -0.6      -0.3
  5 C                -0.6      -0.3      -0.4      -0.1      -0.0      -0.0
  6 C               103.6     104.8       0.1      -0.0      -0.0      -0.0
  7 H                -0.0      -0.0     142.2     105.5     104.9     106.7
  8 H                 0.0      -0.0      -0.5      -0.6      -0.3      -0.1
  9 H                -0.0      -0.0      -0.6      -0.0      -0.0      -0.0
 12 H                -2.0      -3.0      -0.0      -0.0      -0.0      -0.0

                    108       109       110       111       112       113   
                   0.00000   0.00000   0.00000   0.00000   0.00000   0.00000
                   0.00344   0.00013   0.00011   0.00002   0.00373   0.00013
                  --------  --------  --------  --------  --------  --------
  1 C                -0.3       0.0      -0.0      -0.0       0.0      -0.0
  2 O                 0.1      -0.3      -0.2      -0.5      -0.0      -0.0
  3 C               -35.4      -3.2      -4.2      -6.5       0.0      -0.1
  4 C                 0.3      -0.3      -0.0      -0.2     -33.7      -3.9
  5 C                -0.2      -0.1      -0.0       0.0      -0.8       0.2
  6 C                -0.3       0.0      -0.0      -0.1       0.2      -0.0
  7 H                -0.5      -0.4      -0.6       0.1      -0.6      -0.1
  8 H               137.1     104.5     105.2     107.3      -0.0      -0.1
  9 H                -0.0      -0.0      -0.0      -0.0     135.3     104.6
 10 H                -0.7      -0.1      -0.0      -0.0      -0.3      -0.6

                    114       115       116       117       118       119   
                   0.00000   0.00000   0.00000   0.00000   0.00000   0.00000
                   0.00011   0.00003   0.00235   0.00014   0.00012   0.00003
                  --------  --------  --------  --------  --------  --------
  1 C                -0.0      -0.0      -0.1       0.0      -0.0      -0.0
  3 C                -0.1      -0.1       0.6      -0.1      -0.1      -0.3
  4 C                -3.2      -7.8     -35.8      -3.8      -3.2      -7.7
  5 C                -0.4      -0.1       0.6      -0.1      -0.2      -0.2
  6 C                -0.2       0.0       0.1      -0.1      -0.0       0.0
  8 H                -0.0      -0.0      -0.7      -0.1      -0.0      -0.0
  9 H               104.6     108.0      -0.3      -0.5      -0.6      -0.0
 10 H                -0.6       0.0     136.5     104.7     104.2     108.3
 11 H                -0.0      -0.0      -0.7      -0.0      -0.0      -0.0

                    120       121       122       123       124       125   
                   0.00000   0.00000   0.00000   0.00000   0.00000   0.00000
                   0.00214   0.00017   0.00007   0.00006   0.00253   0.00016
                  --------  --------  --------  --------  --------  --------
  0 O                -0.0      -0.0      -0.0      -0.0      -0.3      -0.0
  1 C                 0.2      -0.0      -0.0      -0.0      -1.1      -0.1
  3 C                -0.1      -0.0      -0.0      -0.0      -0.2      -0.0
  4 C                -1.2      -0.1       0.0      -1.3       0.3      -0.0
  5 C               -41.0      -3.0      -8.0      -4.9      -2.0      -0.1
  6 C                -1.5      -0.1      -0.2       0.2     -43.0      -3.2
 10 H                -0.7      -0.0      -0.0       0.0      -0.0      -0.0
 11 H               145.5     103.4     108.3     106.1      -1.1      -0.0
 12 H                -1.0      -0.0      -0.0      -0.0     147.3     103.5

                    126       127   
                   0.00000   0.00000
                   0.00008   0.00006
                  --------  --------
  1 C                -0.3      -0.8
  5 C                -0.6       0.2
  6 C                -6.2      -6.6
 12 H               107.2     107.3

Storing NBOs: 4376.nbo
                                    *** NBOs were stored ***

                                *** returned from GENNBO program ***

-------
TIMINGS
-------

Total SCF time: 0 days 0 hours 0 min 4 sec 

Total time                  ....       4.718 sec
Sum of individual times     ....       5.148 sec  (109.1%)

Fock matrix formation       ....       3.012 sec  ( 63.8%)
  Coulomb formation         ....       1.631 sec  ( 54.2% of F)
  Split-RI-J                ....       1.623 sec  ( 53.9% of F)
  XC integration            ....       1.377 sec  ( 45.7% of F)
    Basis function eval.    ....       0.452 sec  ( 32.9% of XC)
    Density eval.           ....       0.247 sec  ( 17.9% of XC)
    XC-Functional eval.     ....       0.085 sec  (  6.2% of XC)
    XC-Potential eval.      ....       0.541 sec  ( 39.3% of XC)
Diagonalization             ....       0.017 sec  (  0.4%)
Density matrix formation    ....       0.002 sec  (  0.0%)
Population analysis         ....       1.187 sec  ( 25.2%)
Initial guess               ....       0.327 sec  (  6.9%)
Orbital Transformation      ....       0.000 sec  (  0.0%)
Orbital Orthonormalization  ....       0.000 sec  (  0.0%)
DIIS solution               ....       0.004 sec  (  0.1%)
SOSCF solution              ....       0.009 sec  (  0.2%)
Grid generation             ....       0.590 sec  ( 12.5%)
           ************************************************************
           *              Shut down parallel processing               *
           ************************************************************

-------------------------   --------------------
FINAL SINGLE POINT ENERGY      -343.919974717874
-------------------------   --------------------


                            ***************************************
                            *     ORCA property calculations      *
                            ***************************************

                                    ---------------------
                                    Active property flags
                                    ---------------------
   (+) Dipole Moment


------------------------------------------------------------------------------
                       ORCA ELECTRIC PROPERTIES CALCULATION
------------------------------------------------------------------------------

Dipole Moment Calculation                       ... on
Quadrupole Moment Calculation                   ... off
Polarizability Calculation                      ... off
GBWName                                         ... 4376.gbw
Electron density file                           ... 4376.scfp.tmp

-------------
DIPOLE MOMENT
-------------
                                X             Y             Z
Electronic contribution:     -5.68593       0.51736       1.07636
Nuclear contribution   :      7.47119      -0.82577      -1.50286
                        -----------------------------------------
Total Dipole Moment    :      1.78527      -0.30842      -0.42650
                        -----------------------------------------
Magnitude (a.u.)       :      1.86123
Magnitude (Debye)      :      4.73088


Timings for individual modules:

Sum of individual times         ...        5.834 sec (=   0.097 min)
GTO integral calculation        ...        0.461 sec (=   0.008 min)   7.9 %
SCF iterations                  ...        5.372 sec (=   0.090 min)  92.1 %
                             ****ORCA TERMINATED NORMALLY****
TOTAL RUN TIME: 0 days 0 hours 0 minutes 6 seconds 233 msec
