
                                 *****************
                                 * O   R   C   A *
                                 *****************

           --- An Ab Initio, DFT and Semiempirical electronic structure package ---

                  #######################################################
                  #                        -***-                        #
                  #  Department of molecular theory and spectroscopy    #
                  #              Directorship: Frank Neese              #
                  # Max Planck Institute for Chemical Energy Conversion #
                  #                  D-45470 Muelheim/Ruhr              #
                  #                       Germany                       #
                  #                                                     #
                  #                  All rights reserved                #
                  #                        -***-                        #
                  #######################################################


                         Program Version 3.0.3 - RELEASE   -


 With contributions from (in alphabetic order):
   Ute Becker             : Parallelization
   Dmytro Bykov           : SCF Hessian
   Dmitry Ganyushin       : Spin-Orbit,Spin-Spin,Magnetic field MRCI
   Andreas Hansen         : Spin unrestricted coupled pair/coupled cluster methods
   Dimitrios Liakos       : Extrapolation schemes; parallel MDCI
   Robert Izsak           : Overlap fitted RIJCOSX, COSX-SCS-MP3
   Christian Kollmar      : KDIIS, OOCD, Brueckner-CCSD(T), CCSD density
   Simone Kossmann        : Meta GGA functionals, TD-DFT gradient, OOMP2, MP2 Hessian
   Taras Petrenko         : DFT Hessian,TD-DFT gradient, ASA and ECA modules, normal mode analysis, Resonance Raman, ABS, FL, XAS/XES, NRVS
   Christoph Reimann      : Effective Core Potentials
   Michael Roemelt        : Restricted open shell CIS
   Christoph Riplinger    : Improved optimizer, TS searches, QM/MM, DLPNO-CCSD
   Barbara Sandhoefer     : DKH picture change effects
   Igor Schapiro          : Molecular dynamics
   Kantharuban Sivalingam : CASSCF convergence, NEVPT2
   Boris Wezisla          : Elementary symmetry handling
   Frank Wennmohs         : Technical directorship


 We gratefully acknowledge several colleagues who have allowed us to
 interface, adapt or use parts of their codes:
   Stefan Grimme, W. Hujo, H. Kruse, T. Risthaus : VdW corrections, initial TS optimization,
                                                   DFT functionals, gCP
   Ed Valeev                                     : LibInt (2-el integral package), F12 methods
   Garnet Chan, S. Sharma, R. Olivares           : DMRG
   Ulf Ekstrom                                   : XCFun DFT Library
   Mihaly Kallay                                 : mrcc  (arbitrary order and MRCC methods)
   Andreas Klamt, Michael Diedenhofen            : otool_cosmo (COSMO solvation model)
   Frank Weinhold                                : gennbo (NPA and NBO analysis)
   Christopher J. Cramer and Donald G. Truhlar   : smd solvation model


 Your calculation uses the libint2 library for the computation of 2-el integrals
 For citations please refer to: http://libint.valeyev.net

 This ORCA versions uses:
   CBLAS   interface :  Fast vector & matrix operations
   LAPACKE interface :  Fast linear algebra routines
   SCALAPACK package :  Parallel linear algebra routines


Your calculation utilizes the basis: Ahlrichs-VDZ
Cite in your paper:
H - Kr: A. Schaefer, H. Horn and R. Ahlrichs, J. Chem. Phys. 97, 2571 (1992).

Your calculation utilizes the basis: Ahlrichs SVPalls1+f
Cite in your paper:
Rb - Xe: A. Schaefer, C. Huber and R. Ahlrichs, J. Chem. Phys. 100, 5829 (1994).

================================================================================
                                        WARNINGS
                       Please study these warnings very carefully!
================================================================================
Now building the actual basis set


INFO   : the flag for use of LIBINT has been found!

================================================================================
                                       INPUT FILE
================================================================================
NAME = 4608.inp
|  1> ! RI PBE def2-SVP def2-SVP/J NBO PAL2
|  2> % maxcore 2000
|  3> % output
|  4>     # printlevel mini
|  5>     print[ P_Basis ] 0
|  6>     print[ P_SCFInfo ] 1
|  7>     print[ P_SCFIterInfo ] 1
|  8>     print[ P_OrbEn ] 0
|  9>     print[ P_Cartesian ] 0
| 10> end
| 11> *xyz 0 1
| 12>  C        0.8417470000    -1.0967960000     0.9166430000 
| 13>  C        1.1376530000    -0.3854510000    -0.3510140000 
| 14>  C        0.8361770000     1.0811170000    -0.4492210000 
| 15>  O       -0.2845410000     1.4585750000     0.3388130000 
| 16>  N       -1.4718940000     0.7915960000     0.0479080000 
| 17>  C       -1.3546450000    -0.4459110000    -0.2281820000 
| 18>  C       -0.1082250000    -1.2194900000    -0.2604120000 
| 19>  H        0.5028890000    -0.5139460000     1.7634850000 
| 20>  H        1.4226870000    -1.9773060000     1.1589960000 
| 21>  H        1.9449960000    -0.7498260000    -0.9773920000 
| 22>  H        0.6502900000     1.3518920000    -1.4977500000 
| 23>  H        1.6532340000     1.6969690000    -0.0682480000 
| 24>  H       -2.2990300000    -0.9399560000    -0.4404060000 
| 25>  H       -0.1493380000    -2.1753760000    -0.7669210000 
| 26> *
| 27> 
| 28>                          ****END OF INPUT****
================================================================================

                       ****************************
                       * Single Point Calculation *
                       ****************************

--------------------------------
INTERNAL COORDINATES (ANGSTROEM)
--------------------------------
 C      0   0   0   0.000000     0.000     0.000
 C      1   0   0   1.483417     0.000     0.000
 C      2   1   0   1.500451   118.983     0.000
 O      3   2   1   1.421084   112.444   328.425
 N      4   3   2   1.392585   115.427   302.384
 C      5   4   3   1.273341   115.611    38.588
 C      6   5   4   1.467319   126.538     0.332
 H      1   2   3   1.082442   118.216   354.361
 H      1   2   3   1.082370   118.319   206.732
 H      2   1   3   1.084860   118.737   151.331
 H      3   2   1   1.098766   109.714   206.580
 H      3   2   1   1.091786   112.218    85.634
 H      6   5   4   1.086730   113.838   179.407
 H      7   6   5   1.082571   116.329   196.056

---------------------------
INTERNAL COORDINATES (A.U.)
---------------------------
 C      0   0   0   0.000000     0.000     0.000
 C      1   0   0   2.803252     0.000     0.000
 C      2   1   0   2.835442   118.983     0.000
 O      3   2   1   2.685460   112.444   328.425
 N      4   3   2   2.631605   115.427   302.384
 C      5   4   3   2.406265   115.611    38.588
 C      6   5   4   2.772832   126.538     0.332
 H      1   2   3   2.045519   118.216   354.361
 H      1   2   3   2.045382   118.319   206.732
 H      2   1   3   2.050088   118.737   151.331
 H      3   2   1   2.076366   109.714   206.580
 H      3   2   1   2.063176   112.218    85.634
 H      6   5   4   2.053622   113.838   179.407
 H      7   6   5   2.045762   116.329   196.056



           ************************************************************
           *        Program running with 2 parallel MPI-processes     *
           *              working on a common directory               *
           ************************************************************
------------------------------------------------------------------------------
                           ORCA GTO INTEGRAL CALCULATION
                           -- RI-GTO INTEGRALS CHOSEN --
------------------------------------------------------------------------------

                         BASIS SET STATISTICS AND STARTUP INFO

Gaussian basis set:
 # of primitive gaussian shells          ...  119
 # of primitive gaussian functions       ...  217
 # of contracted shells                  ...   63
 # of contracted basis functions         ...  133
 Highest angular momentum                ...    2
 Maximum contraction depth               ...    5
Auxiliary gaussian basis set:
 # of primitive gaussian shells          ...  224
 # of primitive gaussian functions       ...  602
 # of contracted shells                  ...  140
 # of contracted aux-basis functions     ...  420
 Highest angular momentum                ...    4
 Maximum contraction depth               ...    7
Ratio of auxiliary to basis functions    ...  3.16
Integral package used                  ... LIBINT
 One Electron integrals                  ... done
 Ordering auxiliary basis shells         ... done
 Integral threshhold             Thresh  ...  1.000e-10
 Primitive cut-off               TCut    ...  1.000e-11
 Pre-screening matrix                    ... done
 Shell pair data                         ... 
 Ordering of the shell pairs             ... done (   0.000 sec) 1995 of 2016 pairs
 Determination of significant pairs      ... done (   0.000 sec)
 Creation of shell pair data             ... done (   0.000 sec)
 Storage of shell pair data              ... done (   0.000 sec)
 Shell pair data done in (   0.001 sec)
 Computing two index integrals           ... done
 Cholesky decomposition of the V-matrix  ... done


Timings:
 Total evaluation time                   ...   0.166 sec (  0.003 min)
 One electron matrix time                ...   0.020 sec (  0.000 min) = 11.8%
 Schwartz matrix evaluation time         ...   0.078 sec (  0.001 min) = 46.8%
 Two index repulsion integral time       ...   0.003 sec (  0.000 min) =  2.0%
 Cholesky decomposition of V             ...   0.003 sec (  0.000 min) =  1.7%
 Three index repulsion integral time     ...   0.000 sec (  0.000 min) =  0.0%

           ************************************************************
           *              Shut down parallel processing               *
           ************************************************************


           ************************************************************
           *        Program running with 2 parallel MPI-processes     *
           *              working on a common directory               *
           ************************************************************
-------------------------------------------------------------------------------
                                 ORCA SCF
-------------------------------------------------------------------------------

------------
SCF SETTINGS
------------
Hamiltonian:
 Density Functional     Method          .... DFT(GTOs)
 Exchange Functional    Exchange        .... PBE
   PBE kappa parameter  XKappa          ....  0.804000
 Correlation Functional Correlation     .... PBE
 LDA part of GGA corr.  LDAOpt          .... PW91-LDA
 Gradients option       PostSCFGGA      .... off
   NL short-range parameter             ....  6.400000
 RI-approximation to the Coulomb term is turned on
   Number of auxiliary basis functions  .... 420


General Settings:
 Integral files         IntName         .... 4608
 Hartree-Fock type      HFTyp           .... RHF
 Total Charge           Charge          ....    0
 Multiplicity           Mult            ....    1
 Number of Electrons    NEL             ....   52
 Basis Dimension        Dim             ....  133
 Nuclear Repulsion      ENuc            ....    307.2862553234 Eh

Convergence Acceleration:
 DIIS                   CNVDIIS         .... on
   Start iteration      DIISMaxIt       ....    12
   Startup error        DIISStart       ....  0.200000
   # of expansion vecs  DIISMaxEq       ....     5
   Bias factor          DIISBfac        ....   1.050
   Max. coefficient     DIISMaxC        ....  10.000
 Newton-Raphson         CNVNR           .... off
 SOSCF                  CNVSOSCF        .... on
   Start iteration      SOSCFMaxIt      ....   150
   Startup grad/error   SOSCFStart      ....  0.003300
 Level Shifting         CNVShift        .... on
   Level shift para.    LevelShift      ....    0.2500
   Turn off err/grad.   ShiftErr        ....    0.0010
 Zerner damping         CNVZerner       .... off
 Static damping         CNVDamp         .... on
   Fraction old density DampFac         ....    0.7000
   Max. Damping (<1)    DampMax         ....    0.9800
   Min. Damping (>=0)   DampMin         ....    0.0000
   Turn off err/grad.   DampErr         ....    0.1000
 Fernandez-Rico         CNVRico         .... off

SCF Procedure:
 Maximum # iterations   MaxIter         ....   125
 SCF integral mode      SCFMode         .... Direct
   Integral package                     .... LIBINT
 Reset frequeny         DirectResetFreq ....    20
 Integral Threshold     Thresh          ....  1.000e-10 Eh
 Primitive CutOff       TCut            ....  1.000e-11 Eh

Convergence Tolerance:
 Convergence Check Mode ConvCheckMode   .... Total+1el-Energy
 Energy Change          TolE            ....  1.000e-06 Eh
 1-El. energy change                    ....  1.000e-03 Eh
 Orbital Gradient       TolG            ....  5.000e-05
 Orbital Rotation angle TolX            ....  5.000e-05
 DIIS Error             TolErr          ....  1.000e-06


Diagonalization of the overlap matrix:
Smallest eigenvalue                        ... 8.480e-04
Time for diagonalization                   ...    0.009 sec
Threshold for overlap eigenvalues          ... 1.000e-08
Number of eigenvalues below threshold      ... 0
Time for construction of square roots      ...    0.003 sec
Total time needed                          ...    0.012 sec

-------------------
DFT GRID GENERATION
-------------------

General Integration Accuracy     IntAcc      ...  4.340
Radial Grid Type                 RadialGrid  ... Gauss-Chebyshev
Angular Grid (max. acc.)         AngularGrid ... Lebedev-110
Angular grid pruning method      GridPruning ... 3 (G Style)
Weight generation scheme         WeightScheme... Becke
Basis function cutoff            BFCut       ...    1.0000e-10
Integration weight cutoff        WCut        ...    1.0000e-14
Grids for H and He will be reduced by one unit

# of grid points (after initial pruning)     ...  17256 (   0.0 sec)
# of grid points (after weights+screening)   ...  16008 (   0.1 sec)
nearest neighbour list constructed           ...    0.0 sec
Grid point re-assignment to atoms done       ...    0.0 sec
Grid point division into batches done        ...    0.0 sec
Reduced shell lists constructed in    0.1 sec

Total number of grid points                  ...    16008
Total number of batches                      ...      256
Average number of points per batch           ...       62
Average number of grid points per atom       ...     1143
Average number of shells per batch           ...    53.54 (84.99%)
Average number of basis functions per batch  ...   115.05 (86.50%)
Average number of large shells per batch     ...    44.91 (83.89%)
Average number of large basis fcns per batch ...    94.39 (82.04%)
Maximum spatial batch extension              ...  18.08, 20.44, 14.19 au
Average spatial batch extension              ...   1.34,  1.37,  1.43 au

Time for grid setup =    0.131 sec

------------------------------
INITIAL GUESS: MODEL POTENTIAL
------------------------------
Loading Hartree-Fock densities                     ... done
Calculating cut-offs                               ... done
Setting up the integral package                    ... done
Initializing the effective Hamiltonian             ... done
Starting the Coulomb interaction                   ... done (   0.0 sec)
Reading the grid                                   ... done
Mapping shells                                     ... done
Starting the XC term evaluation                    ... done (   0.1 sec)
  promolecular density results
     # of electrons  =     51.991221589
     EX              =    -42.342888946
     EC              =     -1.741632983
     EX+EC           =    -44.084521929
Transforming the Hamiltonian                       ... done (   0.0 sec)
Diagonalizing the Hamiltonian                      ... done (   0.0 sec)
Back transforming the eigenvectors                 ... done (   0.0 sec)
Now organizing SCF variables                       ... done
                      ------------------
                      INITIAL GUESS DONE (   0.4 sec)
                      ------------------
--------------
SCF ITERATIONS
--------------
ITER       Energy         Delta-E        Max-DP      RMS-DP      [F,P]     Damp
               ***  Starting incremental Fock matrix formation  ***
  0   -323.8915426645   0.000000000000 0.05966346  0.00204058  0.1127959 0.7000
  1   -323.9370332095  -0.045490545012 0.03479392  0.00153811  0.0547594 0.7000
                               ***Turning on DIIS***
  2   -323.9552828932  -0.018249683688 0.04285132  0.00274926  0.0224655 0.0000
  3   -323.9820737873  -0.026790894159 0.02950817  0.00112238  0.0323458 0.0000
  4   -323.9892243995  -0.007150612150 0.00692245  0.00032136  0.0065093 0.0000
                      *** Initiating the SOSCF procedure ***
                           *** Shutting down DIIS ***
                      *** Re-Reading the Fockian *** 
                      *** Removing any level shift *** 
ITER      Energy       Delta-E        Grad      Rot      Max-DP    RMS-DP
  5   -323.98955868  -0.0003342787  0.000505  0.000505  0.002241  0.000120
               *** Restarting incremental Fock matrix formation ***
  6   -323.98957552  -0.0000168433  0.000425  0.002132  0.003382  0.000115
  7   -323.98953980   0.0000357229  0.001404  0.002408  0.002804  0.000084
  8   -323.98958245  -0.0000426486  0.000170  0.000604  0.001092  0.000027
  9   -323.98958050   0.0000019491  0.000395  0.000389  0.000766  0.000017
 10   -323.98958291  -0.0000024125  0.000023  0.000081  0.000212  0.000007
 11   -323.98958286   0.0000000505  0.000036  0.000038  0.000149  0.000004
                 **** Energy Check signals convergence ****
              ***Rediagonalizing the Fockian in SOSCF/NRSCF***

               *****************************************************
               *                     SUCCESS                       *
               *           SCF CONVERGED AFTER  12 CYCLES          *
               *****************************************************

Setting up the final grid:

General Integration Accuracy     IntAcc      ...  4.670
Radial Grid Type                 RadialGrid  ... Gauss-Chebyshev
Angular Grid (max. acc.)         AngularGrid ... Lebedev-302
Angular grid pruning method      GridPruning ... 3 (G Style)
Weight generation scheme         WeightScheme... Becke
Basis function cutoff            BFCut       ...    1.0000e-10
Integration weight cutoff        WCut        ...    1.0000e-14
Grids for H and He will be reduced by one unit

# of grid points (after initial pruning)     ...  67242 (   0.0 sec)
# of grid points (after weights+screening)   ...  61406 (   0.1 sec)
nearest neighbour list constructed           ...    0.0 sec
Grid point re-assignment to atoms done       ...    0.0 sec
Grid point division into batches done        ...    0.2 sec
Reduced shell lists constructed in    0.4 sec

Total number of grid points                  ...    61406
Total number of batches                      ...      966
Average number of points per batch           ...       63
Average number of grid points per atom       ...     4386
Average number of shells per batch           ...    50.97 (80.91%)
Average number of basis functions per batch  ...   109.16 (82.07%)
Average number of large shells per batch     ...    41.63 (81.68%)
Average number of large basis fcns per batch ...    86.61 (79.34%)
Maximum spatial batch extension              ...  16.64, 17.03, 15.83 au
Average spatial batch extension              ...   0.89,  0.90,  0.90 au

Final grid set up in    0.5 sec
Final integration                            ... done (   0.4 sec)
Change in XC energy                          ...     0.000002160
Integrated number of electrons               ...    51.999918989
Previous integrated no of electrons          ...    51.997889702

----------------
TOTAL SCF ENERGY
----------------

Total Energy       :         -323.98958079 Eh           -8816.20470 eV

Components:
Nuclear Repulsion  :          307.28625532 Eh            8361.68411 eV
Electronic Energy  :         -631.27583612 Eh          -17177.88881 eV

One Electron Energy:        -1047.71083307 Eh          -28509.66117 eV
Two Electron Energy:          416.43499695 Eh           11331.77236 eV

Virial components:
Potential Energy   :         -645.21430684 Eh          -17557.17388 eV
Kinetic Energy     :          321.22472605 Eh            8740.96918 eV
Virial Ratio       :            2.00860723


DFT components:
N(Alpha)           :       25.999959494714 electrons
N(Beta)            :       25.999959494714 electrons
N(Total)           :       51.999918989428 electrons
E(X)               :      -43.067031997469 Eh       
E(C)               :       -1.751896815533 Eh       
E(XC)              :      -44.818928813002 Eh       

---------------
SCF CONVERGENCE
---------------

  Last Energy change         ...   -9.3588e-08  Tolerance :   1.0000e-06
  Last MAX-Density change    ...    1.5763e-05  Tolerance :   1.0000e-05
  Last RMS-Density change    ...    6.5701e-07  Tolerance :   1.0000e-06
  Last Orbital Gradient      ...    2.1419e-06  Tolerance :   5.0000e-05
  Last Orbital Rotation      ...    7.4559e-06  Tolerance :   5.0000e-05

             **** THE GBW FILE WAS UPDATED (4608.gbw) ****
             **** DENSITY FILE WAS UPDATED (4608.scfp.tmp) ****
             **** ENERGY FILE WAS UPDATED (4608.en.tmp) ****

                    ********************************
                    * MULLIKEN POPULATION ANALYSIS *
                    ********************************

-----------------------
MULLIKEN ATOMIC CHARGES
-----------------------
   0 C :    0.035027
   1 C :   -0.178160
   2 C :    0.276359
   3 O :   -0.286413
   4 N :    0.032315
   5 C :   -0.026607
   6 C :   -0.071903
   7 H :    0.057164
   8 H :    0.041258
   9 H :    0.032301
  10 H :    0.017720
  11 H :    0.030156
  12 H :    0.016086
  13 H :    0.024695
Sum of atomic charges:    0.0000000

--------------------------------
MULLIKEN REDUCED ORBITAL CHARGES
--------------------------------
  0 C s       :     3.051636  s :     3.051636
      pz      :     0.905103  p :     2.879795
      px      :     0.988403
      py      :     0.986289
      dz2     :     0.009392  d :     0.033542
      dxz     :     0.008375
      dyz     :     0.008001
      dx2y2   :     0.003131
      dxy     :     0.004644
  1 C s       :     3.177282  s :     3.177282
      pz      :     1.007401  p :     2.957368
      px      :     0.981608
      py      :     0.968359
      dz2     :     0.008110  d :     0.043510
      dxz     :     0.008457
      dyz     :     0.009207
      dx2y2   :     0.008124
      dxy     :     0.009611
  2 C s       :     2.935059  s :     2.935059
      pz      :     0.931240  p :     2.730832
      px      :     0.845323
      py      :     0.954270
      dz2     :     0.013622  d :     0.057749
      dxz     :     0.012575
      dyz     :     0.007566
      dx2y2   :     0.010369
      dxy     :     0.013617
  3 O s       :     3.802956  s :     3.802956
      pz      :     1.629766  p :     4.462649
      px      :     1.144989
      py      :     1.687894
      dz2     :     0.003032  d :     0.020808
      dxz     :     0.004847
      dyz     :     0.002823
      dx2y2   :     0.004061
      dxy     :     0.006045
  4 N s       :     3.573007  s :     3.573007
      pz      :     1.127714  p :     3.350741
      px      :     1.105777
      py      :     1.117250
      dz2     :     0.005987  d :     0.043937
      dxz     :     0.005667
      dyz     :     0.007523
      dx2y2   :     0.013072
      dxy     :     0.011688
  5 C s       :     3.151764  s :     3.151764
      pz      :     0.982509  p :     2.825313
      px      :     0.886985
      py      :     0.955819
      dz2     :     0.003726  d :     0.049530
      dxz     :     0.003953
      dyz     :     0.010960
      dx2y2   :     0.013925
      dxy     :     0.016967
  6 C s       :     3.124881  s :     3.124881
      pz      :     1.033641  p :     2.905654
      px      :     0.915136
      py      :     0.956877
      dz2     :     0.006801  d :     0.041368
      dxz     :     0.009357
      dyz     :     0.006358
      dx2y2   :     0.009102
      dxy     :     0.009749
  7 H s       :     0.918869  s :     0.918869
      pz      :     0.010058  p :     0.023967
      px      :     0.005907
      py      :     0.008003
  8 H s       :     0.934931  s :     0.934931
      pz      :     0.004631  p :     0.023811
      px      :     0.008063
      py      :     0.011117
  9 H s       :     0.945027  s :     0.945027
      pz      :     0.007942  p :     0.022672
      px      :     0.010200
      py      :     0.004530
 10 H s       :     0.960790  s :     0.960790
      pz      :     0.012803  p :     0.021490
      px      :     0.003517
      py      :     0.005170
 11 H s       :     0.948308  s :     0.948308
      pz      :     0.005509  p :     0.021536
      px      :     0.008525
      py      :     0.007502
 12 H s       :     0.962414  s :     0.962414
      pz      :     0.004997  p :     0.021500
      px      :     0.012020
      py      :     0.004483
 13 H s       :     0.952572  s :     0.952572
      pz      :     0.007330  p :     0.022733
      px      :     0.003214
      py      :     0.012190


                     *******************************
                     * LOEWDIN POPULATION ANALYSIS *
                     *******************************

----------------------
LOEWDIN ATOMIC CHARGES
----------------------
   0 C :   -0.016517
   1 C :   -0.051560
   2 C :    0.063094
   3 O :   -0.102516
   4 N :   -0.007873
   5 C :   -0.041177
   6 C :   -0.058845
   7 H :    0.035207
   8 H :    0.034104
   9 H :    0.034008
  10 H :    0.015672
  11 H :    0.031139
  12 H :    0.032047
  13 H :    0.033216

-------------------------------
LOEWDIN REDUCED ORBITAL CHARGES
-------------------------------
  0 C s       :     2.824407  s :     2.824407
      pz      :     0.980600  p :     3.102587
      px      :     1.053559
      py      :     1.068429
      dz2     :     0.024455  d :     0.089524
      dxz     :     0.021501
      dyz     :     0.022999
      dx2y2   :     0.007341
      dxy     :     0.013227
  1 C s       :     2.830134  s :     2.830134
      pz      :     1.063002  p :     3.109814
      px      :     1.031389
      py      :     1.015424
      dz2     :     0.020555  d :     0.111613
      dxz     :     0.020969
      dyz     :     0.021972
      dx2y2   :     0.023390
      dxy     :     0.024728
  2 C s       :     2.844758  s :     2.844758
      pz      :     1.005782  p :     2.951752
      px      :     0.914471
      py      :     1.031499
      dz2     :     0.036477  d :     0.140396
      dxz     :     0.028692
      dyz     :     0.016435
      dx2y2   :     0.026946
      dxy     :     0.031846
  3 O s       :     3.515472  s :     3.515472
      pz      :     1.657795  p :     4.549204
      px      :     1.208546
      py      :     1.682863
      dz2     :     0.004983  d :     0.037840
      dxz     :     0.009477
      dyz     :     0.003371
      dx2y2   :     0.009190
      dxy     :     0.010819
  4 N s       :     3.319833  s :     3.319833
      pz      :     1.137242  p :     3.599562
      px      :     1.216146
      py      :     1.246174
      dz2     :     0.011577  d :     0.088478
      dxz     :     0.009554
      dyz     :     0.013721
      dx2y2   :     0.027749
      dxy     :     0.025876
  5 C s       :     2.873551  s :     2.873551
      pz      :     0.962842  p :     3.039261
      px      :     1.034475
      py      :     1.041944
      dz2     :     0.009039  d :     0.128365
      dxz     :     0.008562
      dyz     :     0.022373
      dx2y2   :     0.039808
      dxy     :     0.048583
  6 C s       :     2.821532  s :     2.821532
      pz      :     1.080962  p :     3.128736
      px      :     0.996068
      py      :     1.051707
      dz2     :     0.016505  d :     0.108577
      dxz     :     0.022713
      dyz     :     0.015671
      dx2y2   :     0.025318
      dxy     :     0.028370
  7 H s       :     0.891861  s :     0.891861
      pz      :     0.030886  p :     0.072933
      px      :     0.018218
      py      :     0.023829
  8 H s       :     0.894634  s :     0.894634
      pz      :     0.013515  p :     0.071262
      px      :     0.024276
      py      :     0.033471
  9 H s       :     0.893822  s :     0.893822
      pz      :     0.024678  p :     0.072171
      px      :     0.030842
      py      :     0.016651
 10 H s       :     0.917455  s :     0.917455
      pz      :     0.041273  p :     0.066873
      px      :     0.011009
      py      :     0.014591
 11 H s       :     0.903269  s :     0.903269
      pz      :     0.015266  p :     0.065592
      px      :     0.027695
      py      :     0.022632
 12 H s       :     0.898872  s :     0.898872
      pz      :     0.016314  p :     0.069080
      px      :     0.037168
      py      :     0.015597
 13 H s       :     0.894426  s :     0.894426
      pz      :     0.022847  p :     0.072357
      px      :     0.012423
      py      :     0.037087


                      *****************************
                      * MAYER POPULATION ANALYSIS *
                      *****************************

  NA   - Mulliken gross atomic population
  ZA   - Total nuclear charge
  QA   - Mulliken gross atomic charge
  VA   - Mayer's total valence
  BVA  - Mayer's bonded valence
  FA   - Mayer's free valence

  ATOM       NA         ZA         QA         VA         BVA        FA
  0 C      5.9650     6.0000     0.0350     3.8825     3.8825    -0.0000
  1 C      6.1782     6.0000    -0.1782     4.0113     4.0113    -0.0000
  2 C      5.7236     6.0000     0.2764     3.9684     3.9684     0.0000
  3 O      8.2864     8.0000    -0.2864     2.1373     2.1373     0.0000
  4 N      6.9677     7.0000     0.0323     3.0169     3.0169     0.0000
  5 C      6.0266     6.0000    -0.0266     4.1043     4.1043    -0.0000
  6 C      6.0719     6.0000    -0.0719     3.8953     3.8953    -0.0000
  7 H      0.9428     1.0000     0.0572     1.0009     1.0009    -0.0000
  8 H      0.9587     1.0000     0.0413     0.9818     0.9818     0.0000
  9 H      0.9677     1.0000     0.0323     0.9852     0.9852     0.0000
 10 H      0.9823     1.0000     0.0177     0.9846     0.9846     0.0000
 11 H      0.9698     1.0000     0.0302     0.9871     0.9871     0.0000
 12 H      0.9839     1.0000     0.0161     0.9872     0.9872    -0.0000
 13 H      0.9753     1.0000     0.0247     0.9818     0.9818     0.0000

  Mayer bond orders larger than 0.1
B(  0-C ,  1-C ) :   0.9958 B(  0-C ,  6-C ) :   0.9387 B(  0-C ,  7-H ) :   0.9448 
B(  0-C ,  8-H ) :   0.9416 B(  1-C ,  2-C ) :   1.0571 B(  1-C ,  6-C ) :   0.9232 
B(  1-C ,  9-H ) :   0.9280 B(  2-C ,  3-O ) :   0.9794 B(  2-C , 10-H ) :   0.9292 
B(  2-C , 11-H ) :   0.9384 B(  3-O ,  4-N ) :   0.9389 B(  4-N ,  5-C ) :   1.9212 
B(  5-C ,  6-C ) :   1.0482 B(  5-C , 12-H ) :   0.9657 B(  6-C , 13-H ) :   0.9441 



 *********************************** NBO 6.0 ***********************************
             N A T U R A L   A T O M I C   O R B I T A L   A N D
          N A T U R A L   B O N D   O R B I T A L   A N A L Y S I S
 ***************************** Kiya KiyaLu (100703) ****************************
  (c) Copyright 1996-2015 Board of Regents of the University of Wisconsin System
      on behalf of the Theoretical Chemistry Institute.  All rights reserved.

          Cite this program as:

          NBO 6.0.  E. D. Glendening, J. K. Badenhoop, A. E. Reed,
          J. E. Carpenter, J. A. Bohmann, C. M. Morales, C. R. Landis,
          and F. Weinhold (Theoretical Chemistry Institute, University
          of Wisconsin, Madison, WI, 2013); http://nbo6.chem.wisc.edu/

       /NPA    / : Natural Population Analysis
       /NBO    / : Natural Bond Orbital Analysis
       /AONBO  / : Write the AO to NBO transformation to lfn77
       /FILE   / : Set to 4608

 Filename set to 4608

 Job title:  *** NBO job generated by orca_scf

 Warning: MOs are non-orthogonal; program will continue

 Warning: -1619.98006 electrons reside outside the linearly independent MO space


 NATURAL POPULATIONS:  Natural atomic orbital occupancies

  NAO Atom No lang   Type(AO)    Occupancy      Energy
 -------------------------------------------------------
   1    C  1  s      Cor( 1s)     1.99905      -9.79492
   2    C  1  s      Val( 2s)     1.00656      -0.20020
   3    C  1  s      Ryd( 3s)     0.00159       0.70677
   4    C  1  px     Val( 2p)     1.12163      -0.09265
   5    C  1  px     Ryd( 3p)     0.00205       0.56084
   6    C  1  py     Val( 2p)     1.20017      -0.07901
   7    C  1  py     Ryd( 3p)     0.00465       0.69477
   8    C  1  pz     Val( 2p)     1.07124      -0.07343
   9    C  1  pz     Ryd( 3p)     0.00417       0.49279
  10    C  1  dxy    Ryd( 3d)     0.00059       2.12498
  11    C  1  dxz    Ryd( 3d)     0.00093       2.16383
  12    C  1  dyz    Ryd( 3d)     0.00079       2.27340
  13    C  1  dx2y2  Ryd( 3d)     0.00029       2.01889
  14    C  1  dz2    Ryd( 3d)     0.00122       2.18174

  15    C  2  s      Cor( 1s)     1.99891      -9.79768
  16    C  2  s      Val( 2s)     0.93375      -0.18059
  17    C  2  s      Ryd( 3s)     0.00141       0.73180
  18    C  2  px     Val( 2p)     1.12926      -0.09266
  19    C  2  px     Ryd( 3p)     0.00416       0.65730
  20    C  2  py     Val( 2p)     1.05441      -0.09201
  21    C  2  py     Ryd( 3p)     0.00323       0.59022
  22    C  2  pz     Val( 2p)     1.13233      -0.09372
  23    C  2  pz     Ryd( 3p)     0.00283       0.64420
  24    C  2  dxy    Ryd( 3d)     0.00100       2.17349
  25    C  2  dxz    Ryd( 3d)     0.00101       2.09661
  26    C  2  dyz    Ryd( 3d)     0.00090       2.10533
  27    C  2  dx2y2  Ryd( 3d)     0.00066       2.14858
  28    C  2  dz2    Ryd( 3d)     0.00084       2.11590

  29    C  3  s      Cor( 1s)     1.99903      -9.83965
  30    C  3  s      Val( 2s)     0.99897      -0.21054
  31    C  3  s      Ryd( 3s)     0.00182       0.77659
  32    C  3  px     Val( 2p)     0.92461      -0.08894
  33    C  3  px     Ryd( 3p)     0.00455       0.60889
  34    C  3  py     Val( 2p)     1.07331      -0.07681
  35    C  3  py     Ryd( 3p)     0.00367       0.50003
  36    C  3  pz     Val( 2p)     1.08494      -0.08131
  37    C  3  pz     Ryd( 3p)     0.00401       0.65851
  38    C  3  dxy    Ryd( 3d)     0.00136       2.17189
  39    C  3  dxz    Ryd( 3d)     0.00147       2.13061
  40    C  3  dyz    Ryd( 3d)     0.00071       2.09744
  41    C  3  dx2y2  Ryd( 3d)     0.00096       2.12968
  42    C  3  dz2    Ryd( 3d)     0.00132       2.26907

  43    O  4  s      Cor( 1s)     1.99971     -18.61686
  44    O  4  s      Val( 2s)     1.63383      -0.78358
  45    O  4  s      Ryd( 3s)     0.00105       1.42428
  46    O  4  px     Val( 2p)     1.27164      -0.26480
  47    O  4  px     Ryd( 3p)     0.00230       1.31519
  48    O  4  py     Val( 2p)     1.76083      -0.26686
  49    O  4  py     Ryd( 3p)     0.00246       1.10704
  50    O  4  pz     Val( 2p)     1.72575      -0.27043
  51    O  4  pz     Ryd( 3p)     0.00147       1.06154
  52    O  4  dxy    Ryd( 3d)     0.00123       2.90974
  53    O  4  dxz    Ryd( 3d)     0.00096       2.87218
  54    O  4  dyz    Ryd( 3d)     0.00121       2.65632
  55    O  4  dx2y2  Ryd( 3d)     0.00103       2.79933
  56    O  4  dz2    Ryd( 3d)     0.00106       2.70575

  57    N  5  s      Cor( 1s)     1.99926     -13.86644
  58    N  5  s      Val( 2s)     1.43285      -0.47953
  59    N  5  s      Ryd( 3s)     0.00263       1.05476
  60    N  5  px     Val( 2p)     1.21441      -0.15402
  61    N  5  px     Ryd( 3p)     0.00589       0.94415
  62    N  5  py     Val( 2p)     1.29850      -0.17184
  63    N  5  py     Ryd( 3p)     0.00531       0.84630
  64    N  5  pz     Val( 2p)     1.16849      -0.17893
  65    N  5  pz     Ryd( 3p)     0.00146       0.81142
  66    N  5  dxy    Ryd( 3d)     0.00229       2.46248
  67    N  5  dxz    Ryd( 3d)     0.00136       2.20260
  68    N  5  dyz    Ryd( 3d)     0.00162       2.34284
  69    N  5  dx2y2  Ryd( 3d)     0.00260       2.63871
  70    N  5  dz2    Ryd( 3d)     0.00171       2.40545

  71    C  6  s      Cor( 1s)     1.99913      -9.80371
  72    C  6  s      Val( 2s)     0.90777      -0.14625
  73    C  6  s      Ryd( 3s)     0.00273       0.48952
  74    C  6  px     Val( 2p)     1.13511      -0.05229
  75    C  6  px     Ryd( 3p)     0.00550       0.78556
  76    C  6  py     Val( 2p)     0.95181      -0.03290
  77    C  6  py     Ryd( 3p)     0.01222       0.59531
  78    C  6  pz     Val( 2p)     0.96766      -0.11930
  79    C  6  pz     Ryd( 3p)     0.00322       0.52143
  80    C  6  dxy    Ryd( 3d)     0.00145       2.36708
  81    C  6  dxz    Ryd( 3d)     0.00038       1.88942
  82    C  6  dyz    Ryd( 3d)     0.00142       1.97816
  83    C  6  dx2y2  Ryd( 3d)     0.00117       2.33780
  84    C  6  dz2    Ryd( 3d)     0.00063       2.07646

  85    C  7  s      Cor( 1s)     1.99892      -9.80030
  86    C  7  s      Val( 2s)     0.93002      -0.17633
  87    C  7  s      Ryd( 3s)     0.00166       0.74288
  88    C  7  px     Val( 2p)     1.02372      -0.09129
  89    C  7  px     Ryd( 3p)     0.00396       0.56293
  90    C  7  py     Val( 2p)     1.19452      -0.08900
  91    C  7  py     Ryd( 3p)     0.00540       0.80362
  92    C  7  pz     Val( 2p)     1.14671      -0.10068
  93    C  7  pz     Ryd( 3p)     0.00193       0.62022
  94    C  7  dxy    Ryd( 3d)     0.00090       2.23379
  95    C  7  dxz    Ryd( 3d)     0.00095       2.06000
  96    C  7  dyz    Ryd( 3d)     0.00070       2.09480
  97    C  7  dx2y2  Ryd( 3d)     0.00078       2.22997
  98    C  7  dz2    Ryd( 3d)     0.00076       2.07522

  99    H  8  s      Val( 1s)     0.75603       0.07806
 100    H  8  s      Ryd( 2s)     0.00282       0.33869
 101    H  8  px     Ryd( 2p)     0.00023       1.73302
 102    H  8  py     Ryd( 2p)     0.00041       1.90036
 103    H  8  pz     Ryd( 2p)     0.00053       2.13507

 104    H  9  s      Val( 1s)     0.76105       0.06991
 105    H  9  s      Ryd( 2s)     0.00145       0.30199
 106    H  9  px     Ryd( 2p)     0.00038       1.85080
 107    H  9  py     Ryd( 2p)     0.00063       2.10863
 108    H  9  pz     Ryd( 2p)     0.00011       1.82064

 109    H 10  s      Val( 1s)     0.74885       0.07521
 110    H 10  s      Ryd( 2s)     0.00247       0.29781
 111    H 10  px     Ryd( 2p)     0.00055       2.04107
 112    H 10  py     Ryd( 2p)     0.00018       1.87564
 113    H 10  pz     Ryd( 2p)     0.00038       1.91428

 114    H 11  s      Val( 1s)     0.79564       0.04991
 115    H 11  s      Ryd( 2s)     0.00435       0.32324
 116    H 11  px     Ryd( 2p)     0.00015       1.76093
 117    H 11  py     Ryd( 2p)     0.00020       1.75893
 118    H 11  pz     Ryd( 2p)     0.00086       2.20926

 119    H 12  s      Val( 1s)     0.77034       0.06151
 120    H 12  s      Ryd( 2s)     0.00207       0.30337
 121    H 12  px     Ryd( 2p)     0.00055       2.01619
 122    H 12  py     Ryd( 2p)     0.00037       1.89378
 123    H 12  pz     Ryd( 2p)     0.00022       1.82645

 124    H 13  s      Val( 1s)     0.77132       0.05913
 125    H 13  s      Ryd( 2s)     0.00191       0.30272
 126    H 13  px     Ryd( 2p)     0.00076       2.18690
 127    H 13  py     Ryd( 2p)     0.00021       1.93557
 128    H 13  pz     Ryd( 2p)     0.00021       1.63560

 129    H 14  s      Val( 1s)     0.74702       0.07926
 130    H 14  s      Ryd( 2s)     0.00223       0.29564
 131    H 14  px     Ryd( 2p)     0.00005       1.83832
 132    H 14  py     Ryd( 2p)     0.00076       2.16721
 133    H 14  pz     Ryd( 2p)     0.00031       1.82239

   1 low occupancy (<1.9990e) core orbital  found on  C  2
   1 low occupancy (<1.9990e) core orbital  found on  C  7


 Summary of Natural Population Analysis:

                                     Natural Population
             Natural    ---------------------------------------------
  Atom No    Charge        Core      Valence    Rydberg      Total
 --------------------------------------------------------------------
    C  1   -0.41495      1.99905     4.39961    0.01629     6.41495
    C  2   -0.26470      1.99891     4.24975    0.01604     6.26470
    C  3   -0.10074      1.99903     4.08183    0.01988     6.10074
    O  4   -0.40454      1.99971     6.39205    0.01278     8.40454
    N  5   -0.13838      1.99926     5.11425    0.02487     7.13838
    C  6    0.00980      1.99913     3.96235    0.02872     5.99020
    C  7   -0.31092      1.99892     4.29497    0.01703     6.31092
    H  8    0.23997      0.00000     0.75603    0.00400     0.76003
    H  9    0.23638      0.00000     0.76105    0.00257     0.76362
    H 10    0.24757      0.00000     0.74885    0.00358     0.75243
    H 11    0.19881      0.00000     0.79564    0.00556     0.80119
    H 12    0.22645      0.00000     0.77034    0.00321     0.77355
    H 13    0.22559      0.00000     0.77132    0.00309     0.77441
    H 14    0.24964      0.00000     0.74702    0.00335     0.75036
 ====================================================================
 * Total *  0.00000     13.99401    37.84505    0.16095    52.00000

                                 Natural Population
 ---------------------------------------------------------
   Core                      13.99401 ( 99.9572% of   14)
   Valence                   37.84505 ( 99.5922% of   38)
   Natural Minimal Basis     51.83905 ( 99.6905% of   52)
   Natural Rydberg Basis      0.16095 (  0.3095% of   52)
 ---------------------------------------------------------

    Atom No         Natural Electron Configuration
 ----------------------------------------------------------------------------
      C  1      [core]2s( 1.01)2p( 3.39)3p( 0.01)
      C  2      [core]2s( 0.93)2p( 3.32)3p( 0.01)
      C  3      [core]2s( 1.00)2p( 3.08)3p( 0.01)3d( 0.01)
      O  4      [core]2s( 1.63)2p( 4.76)3p( 0.01)3d( 0.01)
      N  5      [core]2s( 1.43)2p( 3.68)3p( 0.01)3d( 0.01)
      C  6      [core]2s( 0.91)2p( 3.05)3p( 0.02)3d( 0.01)
      C  7      [core]2s( 0.93)2p( 3.36)3p( 0.01)
      H  8            1s( 0.76)
      H  9            1s( 0.76)
      H 10            1s( 0.75)
      H 11            1s( 0.80)
      H 12            1s( 0.77)
      H 13            1s( 0.77)
      H 14            1s( 0.75)


 NATURAL BOND ORBITAL ANALYSIS:

                            Occupancies       Lewis Structure    Low   High
         Max    Occ     -------------------  -----------------   occ   occ
  Cycle  Ctr   Thresh    Lewis   non-Lewis     CR  BD  nC  LP    (L)   (NL)
 ============================================================================
    1     2     1.90    51.25559   0.74441      7  16   0   3     1      1
    2     2     1.87    51.29641   0.70359      7  16   0   3     0      1
 ----------------------------------------------------------------------------

 Structure accepted: No low occupancy Lewis orbitals

 -------------------------------------------------------
   Core                     13.99401 ( 99.957% of  14)
   Valence Lewis            37.30241 ( 98.164% of  38)
  ==================      =============================
   Total Lewis              51.29641 ( 98.647% of  52)
  -----------------------------------------------------
   Valence non-Lewis         0.60365 (  1.161% of  52)
   Rydberg non-Lewis         0.09993 (  0.192% of  52)
  ==================      =============================
   Total non-Lewis           0.70359 (  1.353% of  52)
 -------------------------------------------------------


     (Occupancy)   Bond orbital / Coefficients / Hybrids
 ------------------ Lewis ------------------------------------------------------
   1. (1.99905) CR ( 1) C  1            s(100.00%)
                                         1.0000  0.0000  0.0000  0.0000  0.0000
                                         0.0000  0.0000  0.0000  0.0000  0.0000
                                         0.0000  0.0000  0.0000  0.0000
   2. (1.99891) CR ( 1) C  2            s(100.00%)
                                         1.0000  0.0000  0.0000  0.0000  0.0000
                                         0.0000  0.0000  0.0000  0.0000  0.0000
                                         0.0000  0.0000  0.0000  0.0000
   3. (1.99903) CR ( 1) C  3            s(100.00%)
                                         1.0000  0.0000  0.0000  0.0000  0.0000
                                         0.0000  0.0000  0.0000  0.0000  0.0000
                                         0.0000  0.0000  0.0000  0.0000
   4. (1.99971) CR ( 1) O  4            s(100.00%)
                                         1.0000  0.0000  0.0000  0.0000  0.0000
                                         0.0000  0.0000  0.0000  0.0000  0.0000
                                         0.0000  0.0000  0.0000  0.0000
   5. (1.99926) CR ( 1) N  5            s(100.00%)
                                         1.0000  0.0000  0.0000  0.0000  0.0000
                                         0.0000  0.0000  0.0000  0.0000  0.0000
                                         0.0000  0.0000  0.0000  0.0000
   6. (1.99913) CR ( 1) C  6            s(100.00%)
                                         1.0000  0.0000  0.0000  0.0000  0.0000
                                         0.0000  0.0000  0.0000  0.0000  0.0000
                                         0.0000  0.0000  0.0000  0.0000
   7. (1.99892) CR ( 1) C  7            s(100.00%)
                                         1.0000  0.0000  0.0000  0.0000  0.0000
                                         0.0000  0.0000  0.0000  0.0000  0.0000
                                         0.0000  0.0000  0.0000  0.0000
   8. (1.97006) LP ( 1) O  4            s( 45.06%)p 1.22( 54.91%)d 0.00(  0.04%)
                                         0.0000  0.6712 -0.0034 -0.0743 -0.0038
                                         0.6578 -0.0100  0.3327 -0.0031  0.0028
                                        -0.0003 -0.0139  0.0126  0.0002
   9. (1.87289) LP ( 2) O  4            s(  3.92%)p24.49( 96.03%)d 0.01(  0.05%)
                                         0.0000  0.1978 -0.0089  0.2293 -0.0015
                                        -0.5641  0.0081  0.7677 -0.0054 -0.0044
                                        -0.0049 -0.0045 -0.0084 -0.0201
  10. (1.93715) LP ( 1) N  5            s( 39.59%)p 1.52( 60.33%)d 0.00(  0.08%)
                                         0.0000  0.6288 -0.0208 -0.5900 -0.0326
                                         0.4978  0.0116  0.0785  0.0015  0.0235
                                         0.0038 -0.0026 -0.0060  0.0154
  11. (1.95400) BD ( 1) C  1- C  2
               ( 49.42%)   0.7030* C  1 s( 23.74%)p 3.21( 76.19%)d 0.00(  0.07%)
                                         0.0000  0.4872 -0.0006  0.4536  0.0181
                                         0.5091 -0.0068 -0.5445  0.0124  0.0030
                                        -0.0071 -0.0192 -0.0045  0.0167
               ( 50.58%)   0.7112* C  2 s( 23.08%)p 3.33( 76.85%)d 0.00(  0.06%)
                                         0.0000  0.4804  0.0006  0.1381  0.0318
                                        -0.2492 -0.0083  0.8284 -0.0063  0.0043
                                        -0.0094 -0.0164 -0.0045  0.0151
  12. (1.91340) BD ( 1) C  1- C  7
               ( 48.29%)   0.6949* C  1 s( 20.82%)p 3.80( 79.10%)d 0.00(  0.08%)
                                         0.0000  0.4563  0.0001 -0.7191  0.0022
                                        -0.2732 -0.0212 -0.4456  0.0153  0.0013
                                         0.0238  0.0024  0.0086  0.0118
               ( 51.71%)   0.7191* C  7 s( 20.67%)p 3.84( 79.28%)d 0.00(  0.05%)
                                         0.0000  0.4546 -0.0022  0.2865 -0.0082
                                        -0.1444 -0.0335  0.8298 -0.0064  0.0033
                                         0.0177  0.0062  0.0090  0.0103
  13. (1.98625) BD ( 1) C  1- H  8
               ( 62.37%)   0.7898* C  1 s( 27.87%)p 2.59( 72.10%)d 0.00(  0.03%)
                                         0.0000  0.5279 -0.0054 -0.2527  0.0146
                                         0.4438 -0.0209  0.6776  0.0170 -0.0087
                                        -0.0075  0.0120 -0.0039  0.0029
               ( 37.63%)   0.6134* H  8 s( 99.89%)p 0.00(  0.11%)
                                         0.9994 -0.0042  0.0101 -0.0179 -0.0259
  14. (1.98140) BD ( 1) C  1- H  9
               ( 61.93%)   0.7869* C  1 s( 27.37%)p 2.65( 72.60%)d 0.00(  0.03%)
                                         0.0000  0.5232  0.0033  0.4605 -0.0053
                                        -0.6843  0.0106  0.2120  0.0236 -0.0141
                                         0.0003 -0.0007 -0.0072 -0.0086
               ( 38.07%)   0.6170* H  9 s( 99.90%)p 0.00(  0.10%)
                                         0.9995 -0.0021 -0.0170  0.0253 -0.0085
  15. (1.98198) BD ( 1) C  2- C  3
               ( 51.45%)   0.7173* C  2 s( 29.73%)p 2.36( 70.23%)d 0.00(  0.04%)
                                         0.0000  0.5453  0.0003 -0.1237  0.0351
                                         0.8263  0.0072 -0.0484 -0.0257 -0.0113
                                        -0.0029 -0.0004 -0.0114 -0.0102
               ( 48.55%)   0.6968* C  3 s( 31.38%)p 2.19( 68.58%)d 0.00(  0.04%)
                                         0.0000  0.5602 -0.0052  0.1617  0.0260
                                        -0.8083  0.0057  0.0748 -0.0072 -0.0048
                                         0.0002 -0.0041 -0.0162 -0.0104
  16. (1.91508) BD ( 1) C  2- C  7
               ( 49.16%)   0.7011* C  2 s( 20.26%)p 3.93( 79.67%)d 0.00(  0.07%)
                                         0.0000  0.4501 -0.0075 -0.7375  0.0230
                                        -0.4245 -0.0159 -0.2669 -0.0241  0.0197
                                        -0.0010 -0.0028  0.0098 -0.0145
               ( 50.84%)   0.7130* C  7 s( 21.23%)p 3.71( 78.71%)d 0.00(  0.06%)
                                         0.0000  0.4607 -0.0048  0.6272  0.0008
                                         0.4947 -0.0301 -0.3843 -0.0205  0.0191
                                         0.0012 -0.0042  0.0061 -0.0135
  17. (1.97331) BD ( 1) C  2- H 10
               ( 62.78%)   0.7923* C  2 s( 26.66%)p 2.75( 73.32%)d 0.00(  0.02%)
                                         0.0000  0.5163 -0.0005  0.6479 -0.0050
                                        -0.2722  0.0112 -0.4889  0.0051 -0.0079
                                        -0.0112  0.0063  0.0021 -0.0007
               ( 37.22%)   0.6101* H 10 s( 99.89%)p 0.00(  0.11%)
                                         0.9994 -0.0051 -0.0246  0.0115  0.0187
  18. (1.98799) BD ( 1) C  3- O  4
               ( 32.52%)   0.5703* C  3 s( 19.71%)p 4.06( 80.06%)d 0.01(  0.23%)
                                         0.0000  0.4435  0.0197 -0.7252 -0.0194
                                         0.2055  0.0418  0.4791  0.0256 -0.0126
                                        -0.0374  0.0089  0.0262 -0.0043
               ( 67.48%)   0.8215* O  4 s( 29.56%)p 2.38( 70.36%)d 0.00(  0.08%)
                                         0.0000  0.5436  0.0050  0.6337  0.0158
                                        -0.2303  0.0140 -0.4986  0.0015 -0.0126
                                        -0.0185  0.0163  0.0053  0.0037
  19. (1.98188) BD ( 1) C  3- H 11
               ( 60.76%)   0.7795* C  3 s( 24.51%)p 3.08( 75.45%)d 0.00(  0.04%)
                                         0.0000  0.4949 -0.0122 -0.1719  0.0109
                                         0.2331  0.0179 -0.8186  0.0094 -0.0006
                                         0.0075 -0.0068 -0.0002  0.0169
               ( 39.24%)   0.6264* H 11 s( 99.89%)p 0.00(  0.11%)
                                         0.9994 -0.0092  0.0065 -0.0096  0.0318
  20. (1.97272) BD ( 1) C  3- H 12
               ( 61.47%)   0.7840* C  3 s( 24.33%)p 3.11( 75.63%)d 0.00(  0.04%)
                                         0.0000  0.4932  0.0085  0.6442 -0.0233
                                         0.4980  0.0069  0.3043 -0.0057  0.0136
                                         0.0118  0.0077  0.0023 -0.0049
               ( 38.53%)   0.6208* H 12 s( 99.89%)p 0.00(  0.11%)
                                         0.9994 -0.0038 -0.0251 -0.0188 -0.0105
  21. (1.98432) BD ( 1) O  4- N  5
               ( 59.73%)   0.7728* O  4 s( 21.45%)p 3.66( 78.43%)d 0.01(  0.12%)
                                         0.0000  0.4630  0.0107 -0.7332 -0.0347
                                        -0.4415  0.0047 -0.2246  0.0106  0.0262
                                         0.0142  0.0157  0.0023 -0.0092
               ( 40.27%)   0.6346* N  5 s( 16.21%)p 5.15( 83.52%)d 0.02(  0.27%)
                                         0.0000  0.4019  0.0243  0.7963 -0.0199
                                         0.4120 -0.0616  0.1626 -0.0253  0.0197
                                         0.0102  0.0032  0.0381 -0.0270
  22. (1.99293) BD ( 1) N  5- C  6
               ( 59.39%)   0.7706* N  5 s( 44.02%)p 1.27( 55.84%)d 0.00(  0.14%)
                                         0.0000  0.6630  0.0233  0.0799  0.0217
                                        -0.7012  0.0121 -0.2444  0.0024 -0.0155
                                        -0.0051  0.0156 -0.0249 -0.0170
               ( 40.61%)   0.6373* C  6 s( 32.79%)p 2.05( 67.09%)d 0.00(  0.12%)
                                         0.0000  0.5718  0.0320 -0.0362 -0.0430
                                         0.8092  0.0535  0.0995  0.0112 -0.0014
                                         0.0003  0.0098 -0.0272 -0.0185
  23. (1.97664) BD ( 2) N  5- C  6
               ( 55.93%)   0.7479* N  5 s(  0.25%)p99.99( 99.56%)d 0.76(  0.19%)
                                         0.0000  0.0492  0.0093 -0.0682 -0.0022
                                        -0.2927 -0.0002  0.9514 -0.0061 -0.0033
                                         0.0232 -0.0318 -0.0131 -0.0135
               ( 44.07%)   0.6639* C  6 s(  0.21%)p99.99( 99.65%)d 0.72(  0.15%)
                                         0.0000  0.0443  0.0098 -0.1083 -0.0003
                                        -0.1579  0.0191  0.9792 -0.0242 -0.0031
                                        -0.0004  0.0358  0.0065  0.0120
  24. (1.97944) BD ( 1) C  6- C  7
               ( 48.33%)   0.6952* C  6 s( 37.97%)p 1.63( 61.99%)d 0.00(  0.04%)
                                         0.0000  0.6161 -0.0091  0.6755 -0.0273
                                        -0.4020 -0.0305 -0.0175 -0.0075 -0.0125
                                         0.0007  0.0016  0.0093 -0.0126
               ( 51.67%)   0.7188* C  7 s( 30.48%)p 2.28( 69.48%)d 0.00(  0.04%)
                                         0.0000  0.5521  0.0017 -0.7225 -0.0275
                                         0.4128 -0.0324  0.0172 -0.0191 -0.0161
                                        -0.0004  0.0033  0.0027 -0.0109
  25. (1.96233) BD ( 1) C  6- H 13
               ( 61.36%)   0.7834* C  6 s( 28.87%)p 2.46( 71.10%)d 0.00(  0.03%)
                                         0.0000  0.5371 -0.0140 -0.7269 -0.0016
                                        -0.3922  0.0220 -0.1681  0.0029  0.0094
                                         0.0049  0.0022  0.0112 -0.0080
               ( 38.64%)   0.6216* H 13 s( 99.89%)p 0.00(  0.11%)
                                         0.9994 -0.0040  0.0290  0.0145  0.0059
  26. (1.97862) BD ( 1) C  7- H 14
               ( 62.90%)   0.7931* C  7 s( 27.31%)p 2.66( 72.67%)d 0.00(  0.02%)
                                         0.0000  0.5226 -0.0008 -0.0387 -0.0097
                                        -0.7500  0.0080 -0.4031  0.0021 -0.0018
                                         0.0001  0.0104 -0.0087 -0.0039
               ( 37.10%)   0.6091* H 14 s( 99.89%)p 0.00(  0.11%)
                                         0.9994 -0.0043  0.0003  0.0293  0.0157
 ---------------- non-Lewis ----------------------------------------------------
  27. (0.03406) BD*( 1) C  1- C  2
               ( 50.58%)   0.7112* C  1 s( 23.74%)p 3.21( 76.19%)d 0.00(  0.07%)
                                         0.0000  0.4872 -0.0006  0.4536  0.0181
                                         0.5091 -0.0068 -0.5445  0.0124  0.0030
                                        -0.0071 -0.0192 -0.0045  0.0167
               ( 49.42%)  -0.7030* C  2 s( 23.08%)p 3.33( 76.85%)d 0.00(  0.06%)
                                         0.0000  0.4804  0.0006  0.1381  0.0318
                                        -0.2492 -0.0083  0.8284 -0.0063  0.0043
                                        -0.0094 -0.0164 -0.0045  0.0151
  28. (0.04159) BD*( 1) C  1- C  7
               ( 51.71%)   0.7191* C  1 s( 20.82%)p 3.80( 79.10%)d 0.00(  0.08%)
                                         0.0000  0.4563  0.0001 -0.7191  0.0022
                                        -0.2732 -0.0212 -0.4456  0.0153  0.0013
                                         0.0238  0.0024  0.0086  0.0118
               ( 48.29%)  -0.6949* C  7 s( 20.67%)p 3.84( 79.28%)d 0.00(  0.05%)
                                         0.0000  0.4546 -0.0022  0.2865 -0.0082
                                        -0.1444 -0.0335  0.8298 -0.0064  0.0033
                                         0.0177  0.0062  0.0090  0.0103
  29. (0.01521) BD*( 1) C  1- H  8
               ( 37.63%)   0.6134* C  1 s( 27.87%)p 2.59( 72.10%)d 0.00(  0.03%)
                                         0.0000 -0.5279  0.0054  0.2527 -0.0146
                                        -0.4438  0.0209 -0.6776 -0.0170  0.0087
                                         0.0075 -0.0120  0.0039 -0.0029
               ( 62.37%)  -0.7898* H  8 s( 99.89%)p 0.00(  0.11%)
                                        -0.9994  0.0042 -0.0101  0.0179  0.0259
  30. (0.01198) BD*( 1) C  1- H  9
               ( 38.07%)   0.6170* C  1 s( 27.37%)p 2.65( 72.60%)d 0.00(  0.03%)
                                         0.0000 -0.5232 -0.0033 -0.4605  0.0053
                                         0.6843 -0.0106 -0.2120 -0.0236  0.0141
                                        -0.0003  0.0007  0.0072  0.0086
               ( 61.93%)  -0.7869* H  9 s( 99.90%)p 0.00(  0.10%)
                                        -0.9995  0.0021  0.0170 -0.0253  0.0085
  31. (0.03628) BD*( 1) C  2- C  3
               ( 48.55%)   0.6968* C  2 s( 29.73%)p 2.36( 70.23%)d 0.00(  0.04%)
                                         0.0000 -0.5453 -0.0003  0.1237 -0.0351
                                        -0.8263 -0.0072  0.0484  0.0257  0.0113
                                         0.0029  0.0004  0.0114  0.0102
               ( 51.45%)  -0.7173* C  3 s( 31.38%)p 2.19( 68.58%)d 0.00(  0.04%)
                                         0.0000 -0.5602  0.0052 -0.1617 -0.0260
                                         0.8083 -0.0057 -0.0748  0.0072  0.0048
                                        -0.0002  0.0041  0.0162  0.0104
  32. (0.04665) BD*( 1) C  2- C  7
               ( 50.84%)   0.7130* C  2 s( 20.26%)p 3.93( 79.67%)d 0.00(  0.07%)
                                         0.0000 -0.4501  0.0075  0.7375 -0.0230
                                         0.4245  0.0159  0.2669  0.0241 -0.0197
                                         0.0010  0.0028 -0.0098  0.0145
               ( 49.16%)  -0.7011* C  7 s( 21.23%)p 3.71( 78.71%)d 0.00(  0.06%)
                                         0.0000 -0.4607  0.0048 -0.6272 -0.0008
                                        -0.4947  0.0301  0.3843  0.0205 -0.0191
                                        -0.0012  0.0042 -0.0061  0.0135
  33. (0.02417) BD*( 1) C  2- H 10
               ( 37.22%)   0.6101* C  2 s( 26.66%)p 2.75( 73.32%)d 0.00(  0.02%)
                                         0.0000 -0.5163  0.0005 -0.6479  0.0050
                                         0.2722 -0.0112  0.4889 -0.0051  0.0079
                                         0.0112 -0.0063 -0.0021  0.0007
               ( 62.78%)  -0.7923* H 10 s( 99.89%)p 0.00(  0.11%)
                                        -0.9994  0.0051  0.0246 -0.0115 -0.0187
  34. (0.03739) BD*( 1) C  3- O  4
               ( 67.48%)   0.8215* C  3 s( 19.71%)p 4.06( 80.06%)d 0.01(  0.23%)
                                         0.0000  0.4435  0.0197 -0.7252 -0.0194
                                         0.2055  0.0418  0.4791  0.0256 -0.0126
                                        -0.0374  0.0089  0.0262 -0.0043
               ( 32.52%)  -0.5703* O  4 s( 29.56%)p 2.38( 70.36%)d 0.00(  0.08%)
                                         0.0000  0.5436  0.0050  0.6337  0.0158
                                        -0.2303  0.0140 -0.4986  0.0015 -0.0126
                                        -0.0185  0.0163  0.0053  0.0037
  35. (0.03083) BD*( 1) C  3- H 11
               ( 39.24%)   0.6264* C  3 s( 24.51%)p 3.08( 75.45%)d 0.00(  0.04%)
                                         0.0000 -0.4949  0.0122  0.1719 -0.0109
                                        -0.2331 -0.0179  0.8186 -0.0094  0.0006
                                        -0.0075  0.0068  0.0002 -0.0169
               ( 60.76%)  -0.7795* H 11 s( 99.89%)p 0.00(  0.11%)
                                        -0.9994  0.0092 -0.0065  0.0096 -0.0318
  36. (0.01793) BD*( 1) C  3- H 12
               ( 38.53%)   0.6208* C  3 s( 24.33%)p 3.11( 75.63%)d 0.00(  0.04%)
                                         0.0000 -0.4932 -0.0085 -0.6442  0.0233
                                        -0.4980 -0.0069 -0.3043  0.0057 -0.0136
                                        -0.0118 -0.0077 -0.0023  0.0049
               ( 61.47%)  -0.7840* H 12 s( 99.89%)p 0.00(  0.11%)
                                        -0.9994  0.0038  0.0251  0.0188  0.0105
  37. (0.04273) BD*( 1) O  4- N  5
               ( 40.27%)   0.6346* O  4 s( 21.45%)p 3.66( 78.43%)d 0.01(  0.12%)
                                         0.0000 -0.4630 -0.0107  0.7332  0.0347
                                         0.4415 -0.0047  0.2246 -0.0106 -0.0262
                                        -0.0142 -0.0157 -0.0023  0.0092
               ( 59.73%)  -0.7728* N  5 s( 16.21%)p 5.15( 83.52%)d 0.02(  0.27%)
                                         0.0000 -0.4019 -0.0243 -0.7963  0.0199
                                        -0.4120  0.0616 -0.1626  0.0253 -0.0197
                                        -0.0102 -0.0032 -0.0381  0.0270
  38. (0.01655) BD*( 1) N  5- C  6
               ( 40.61%)   0.6373* N  5 s( 44.02%)p 1.27( 55.84%)d 0.00(  0.14%)
                                         0.0000 -0.6630 -0.0233 -0.0799 -0.0217
                                         0.7012 -0.0121  0.2444 -0.0024  0.0155
                                         0.0051 -0.0156  0.0249  0.0170
               ( 59.39%)  -0.7706* C  6 s( 32.79%)p 2.05( 67.09%)d 0.00(  0.12%)
                                         0.0000 -0.5718 -0.0320  0.0362  0.0430
                                        -0.8092 -0.0535 -0.0995 -0.0112  0.0014
                                        -0.0003 -0.0098  0.0272  0.0185
  39. (0.16401) BD*( 2) N  5- C  6
               ( 44.07%)   0.6639* N  5 s(  0.25%)p99.99( 99.56%)d 0.76(  0.19%)
                                         0.0000 -0.0492 -0.0093  0.0682  0.0022
                                         0.2927  0.0002 -0.9514  0.0061  0.0033
                                        -0.0232  0.0318  0.0131  0.0135
               ( 55.93%)  -0.7479* C  6 s(  0.21%)p99.99( 99.65%)d 0.72(  0.15%)
                                         0.0000 -0.0443 -0.0098  0.1083  0.0003
                                         0.1579 -0.0191 -0.9792  0.0242  0.0031
                                         0.0004 -0.0358 -0.0065 -0.0120
  40. (0.03953) BD*( 1) C  6- C  7
               ( 51.67%)   0.7188* C  6 s( 37.97%)p 1.63( 61.99%)d 0.00(  0.04%)
                                         0.0000  0.6161 -0.0091  0.6755 -0.0273
                                        -0.4020 -0.0305 -0.0175 -0.0075 -0.0125
                                         0.0007  0.0016  0.0093 -0.0126
               ( 48.33%)  -0.6952* C  7 s( 30.48%)p 2.28( 69.48%)d 0.00(  0.04%)
                                         0.0000  0.5521  0.0017 -0.7225 -0.0275
                                         0.4128 -0.0324  0.0172 -0.0191 -0.0161
                                        -0.0004  0.0033  0.0027 -0.0109
  41. (0.02287) BD*( 1) C  6- H 13
               ( 38.64%)   0.6216* C  6 s( 28.87%)p 2.46( 71.10%)d 0.00(  0.03%)
                                         0.0000 -0.5371  0.0140  0.7269  0.0016
                                         0.3922 -0.0220  0.1681 -0.0029 -0.0094
                                        -0.0049 -0.0022 -0.0112  0.0080
               ( 61.36%)  -0.7834* H 13 s( 99.89%)p 0.00(  0.11%)
                                        -0.9994  0.0040 -0.0290 -0.0145 -0.0059
  42. (0.02186) BD*( 1) C  7- H 14
               ( 37.10%)   0.6091* C  7 s( 27.31%)p 2.66( 72.67%)d 0.00(  0.02%)
                                         0.0000 -0.5226  0.0008  0.0387  0.0097
                                         0.7500 -0.0080  0.4031 -0.0021  0.0018
                                        -0.0001 -0.0104  0.0087  0.0039
               ( 62.90%)  -0.7931* H 14 s( 99.89%)p 0.00(  0.11%)
                                        -0.9994  0.0043 -0.0003 -0.0293 -0.0157
  43. (0.00604) RY ( 1) C  1            s( 19.41%)p 3.88( 75.24%)d 0.28(  5.34%)
                                         0.0000  0.0269  0.4398 -0.0170 -0.3891
                                         0.0190  0.7177  0.0029 -0.2920 -0.1370
                                         0.1138 -0.1310 -0.0441  0.0514
  44. (0.00363) RY ( 2) C  1            s(  1.57%)p52.75( 82.77%)d 9.98( 15.66%)
                                         0.0000  0.0143  0.1244  0.0115  0.1611
                                        -0.0161 -0.3603  0.0063 -0.8195 -0.1062
                                         0.0259  0.0817 -0.0369  0.3696
  45. (0.00075) RY ( 3) C  1            s(  2.22%)p40.42( 89.65%)d 3.67(  8.13%)
                                         0.0000 -0.0018  0.1489 -0.0138  0.8455
                                        -0.0127  0.4255 -0.0008 -0.0176  0.1572
                                        -0.1974  0.0593 -0.1184 -0.0088
  46. (0.00049) RY ( 4) C  1            s( 61.57%)p 0.25( 15.12%)d 0.38( 23.32%)
                                         0.0000 -0.0084  0.7846  0.0068 -0.0823
                                         0.0003 -0.2853 -0.0055  0.2509  0.1347
                                        -0.2406  0.3811  0.1044  0.0317
  47. (0.00018) RY ( 5) C  1            s(  0.56%)p30.95( 17.41%)d99.99( 82.03%)
                                         0.0000 -0.0296  0.0689  0.0014  0.1146
                                        -0.0006 -0.0205  0.0028  0.4006 -0.5229
                                         0.2385 -0.0097 -0.3693  0.5945
  48. (0.00015) RY ( 6) C  1            s(  0.04%)p22.81(  0.97%)d99.99( 98.99%)
                                         0.0000 -0.0053  0.0199 -0.0087  0.0823
                                        -0.0071  0.0043  0.0015  0.0526 -0.4458
                                        -0.4802 -0.3836  0.6294  0.1315
  49. (0.00004) RY ( 7) C  1            s(  2.73%)p 1.97(  5.38%)d33.69( 91.89%)
  50. (0.00003) RY ( 8) C  1            s( 12.04%)p 0.74(  8.85%)d 6.57( 79.10%)
  51. (0.00002) RY ( 9) C  1            s(  0.05%)p85.90(  4.62%)d99.99( 95.33%)
  52. (0.00430) RY ( 1) C  2            s( 14.56%)p 4.85( 70.58%)d 1.02( 14.86%)
                                         0.0000  0.0184  0.3811 -0.0041 -0.3052
                                         0.0166 -0.6605 -0.0020  0.4196  0.1503
                                        -0.2610 -0.1655 -0.1050 -0.1394
  53. (0.00295) RY ( 2) C  2            s(  3.86%)p20.06( 77.38%)d 4.86( 18.76%)
                                         0.0000 -0.0376  0.1928  0.0329  0.6379
                                        -0.0112 -0.4213 -0.0214 -0.4333  0.0968
                                         0.2310 -0.1984 -0.2857 -0.0621
  54. (0.00117) RY ( 3) C  2            s( 46.34%)p 0.74( 34.27%)d 0.42( 19.39%)
                                         0.0000 -0.0102  0.6807 -0.0071  0.2279
                                        -0.0106  0.5353  0.0012  0.0636  0.1425
                                        -0.3175  0.0716 -0.1251 -0.2280
  55. (0.00097) RY ( 4) C  2            s( 10.08%)p 6.20( 62.50%)d 2.72( 27.43%)
                                         0.0000  0.0048  0.3174 -0.0029 -0.5018
                                        -0.0040  0.0467  0.0037 -0.6090 -0.3069
                                        -0.0342 -0.4090  0.0851  0.0665
  56. (0.00036) RY ( 5) C  2            s(  2.20%)p 9.14( 20.07%)d35.39( 77.73%)
                                         0.0000  0.0183  0.1471  0.0051 -0.3883
                                        -0.0022 -0.0489  0.0203 -0.2171  0.2283
                                         0.4621  0.5954 -0.2687 -0.2914
  57. (0.00024) RY ( 6) C  2            s(  3.56%)p 4.20( 14.97%)d22.89( 81.47%)
                                         0.0000  0.0102  0.1884 -0.0129  0.0997
                                        -0.0130  0.0319  0.0042  0.3719 -0.7050
                                         0.4761 -0.0833  0.0031 -0.2901
  58. (0.00012) RY ( 7) C  2            s(  5.23%)p 0.13(  0.68%)d18.00( 94.09%)
                                         0.0000  0.0067  0.2286  0.0132  0.0412
                                         0.0149  0.0135  0.0009  0.0671  0.4236
                                         0.4282 -0.1748  0.7397 -0.0195
  59. (0.00010) RY ( 8) C  2            s( 14.04%)p 0.27(  3.81%)d 5.85( 82.15%)
                                         0.0000  0.0046  0.3747 -0.0126  0.0946
                                         0.0003 -0.1697 -0.0080  0.0107 -0.2369
                                         0.0075  0.4644  0.1416  0.7277
  60. (0.00006) RY ( 9) C  2            s(  0.39%)p39.92( 15.68%)d99.99( 83.93%)
  61. (0.00487) RY ( 1) C  3            s(  1.50%)p59.84( 89.48%)d 6.04(  9.03%)
                                         0.0000 -0.0199  0.1206  0.0300 -0.5401
                                        -0.0340  0.3905 -0.0190  0.6694  0.1726
                                        -0.0223 -0.2018  0.1368  0.0235
  62. (0.00373) RY ( 2) C  3            s( 16.13%)p 4.37( 70.56%)d 0.83( 13.31%)
                                         0.0000  0.0141  0.4014 -0.0233 -0.6562
                                        -0.0174 -0.3466 -0.0243 -0.3916  0.1373
                                         0.1239  0.1001  0.0062 -0.2981
  63. (0.00230) RY ( 3) C  3            s( 21.42%)p 1.74( 37.35%)d 1.93( 41.23%)
                                         0.0000  0.0050  0.4628  0.0046  0.2479
                                         0.0116 -0.3156 -0.0040  0.4607 -0.5101
                                         0.2066 -0.0224 -0.0815 -0.3198
  64. (0.00143) RY ( 4) C  3            s(  1.14%)p48.70( 55.74%)d37.68( 43.12%)
                                         0.0000 -0.0242  0.1042  0.0232  0.0209
                                        -0.0053  0.6886 -0.0211 -0.2860 -0.3667
                                        -0.0135  0.2123  0.2594 -0.4291
  65. (0.00055) RY ( 5) C  3            s(  6.01%)p 0.58(  3.46%)d15.07( 90.53%)
                                         0.0000 -0.0067  0.2450  0.0214 -0.1613
                                        -0.0084  0.0571 -0.0154  0.0675 -0.2467
                                        -0.4860  0.5722 -0.3488  0.3989
  66. (0.00029) RY ( 6) C  3            s( 38.84%)p 0.23(  8.99%)d 1.34( 52.17%)
                                         0.0000 -0.0037  0.6232  0.0166  0.2146
                                        -0.0071  0.0498 -0.0060 -0.2025  0.0653
                                        -0.2032 -0.3583  0.4253  0.4085
  67. (0.00014) RY ( 7) C  3            s( 14.80%)p 1.25( 18.57%)d 4.50( 66.63%)
                                         0.0000 -0.0076  0.3847 -0.0192  0.2923
                                         0.0063  0.3158  0.0069  0.0057  0.5417
                                         0.3614  0.1838 -0.4540 -0.0482
  68. (0.00008) RY ( 8) C  3            s(  0.07%)p99.99( 13.28%)d99.99( 86.64%)
  69. (0.00001) RY ( 9) C  3            s(  0.16%)p17.94(  2.86%)d99.99( 96.98%)
  70. (0.00240) RY ( 1) O  4            s(  3.72%)p21.87( 81.46%)d 3.98( 14.82%)
                                         0.0000 -0.0090  0.1928 -0.0038 -0.1095
                                         0.0095  0.8758  0.0050 -0.1881  0.0165
                                        -0.0494 -0.1158  0.3634  0.0039
  71. (0.00203) RY ( 2) O  4            s( 22.86%)p 2.55( 58.39%)d 0.82( 18.75%)
                                         0.0000 -0.0051  0.4781 -0.0010  0.2871
                                         0.0001 -0.0521  0.0074  0.7062  0.0334
                                        -0.1011 -0.1173  0.2741 -0.2954
  72. (0.00073) RY ( 3) O  4            s(  1.55%)p42.69( 66.22%)d20.78( 32.23%)
                                         0.0000  0.0084  0.1243 -0.0339  0.6921
                                        -0.0141 -0.1197  0.0022 -0.4094 -0.4354
                                         0.1813  0.1030  0.2961  0.0388
  73. (0.00032) RY ( 4) O  4            s( 61.64%)p 0.53( 32.82%)d 0.09(  5.54%)
                                         0.0000 -0.0053  0.7851  0.0235 -0.3429
                                         0.0023 -0.2740  0.0080 -0.3672  0.1684
                                         0.0954  0.1277 -0.0039  0.0401
  74. (0.00026) RY ( 5) O  4            s(  0.96%)p 7.54(  7.23%)d95.62( 91.81%)
                                         0.0000  0.0023  0.0980 -0.0281  0.1530
                                        -0.0096 -0.0878 -0.0031 -0.2009 -0.0226
                                        -0.8829 -0.3152 -0.1192  0.1565
  75. (0.00010) RY ( 6) O  4            s(  0.04%)p99.99( 30.25%)d99.99( 69.71%)
                                         0.0000  0.0031  0.0200  0.0044  0.5095
                                         0.0043  0.1362 -0.0005 -0.1561  0.7720
                                         0.1146  0.0026 -0.2838 -0.0860
  76. (0.00003) RY ( 7) O  4            s(  8.55%)p 1.79( 15.34%)d 8.90( 76.10%)
  77. (0.00002) RY ( 8) O  4            s(  0.61%)p 1.69(  1.02%)d99.99( 98.37%)
  78. (0.00000) RY ( 9) O  4            s(  0.08%)p96.08(  7.54%)d99.99( 92.38%)
  79. (0.00400) RY ( 1) N  5            s( 10.40%)p 6.71( 69.72%)d 1.91( 19.89%)
                                         0.0000 -0.0031  0.3224 -0.0269  0.8015
                                         0.0257 -0.2297  0.0036 -0.0237  0.3806
                                         0.0840  0.0995 -0.1669 -0.0959
  80. (0.00283) RY ( 2) N  5            s(  0.15%)p99.99( 93.79%)d40.76(  6.06%)
                                         0.0000 -0.0175  0.0344 -0.0593 -0.3129
                                        -0.0451 -0.8441 -0.0226 -0.3484  0.1484
                                        -0.0666 -0.1063  0.0890 -0.1221
  81. (0.00113) RY ( 3) N  5            s( 14.41%)p 0.71( 10.18%)d 5.23( 75.41%)
                                         0.0000 -0.0065  0.3795  0.0084 -0.1912
                                         0.0178  0.1240 -0.0063  0.2224  0.1649
                                        -0.5518 -0.4378 -0.3778 -0.2967
  82. (0.00070) RY ( 4) N  5            s(  3.28%)p22.10( 72.51%)d 7.38( 24.20%)
                                         0.0000  0.0055  0.1811 -0.0182 -0.0080
                                        -0.0140 -0.2857  0.0055  0.8018 -0.0238
                                        -0.0040  0.0020  0.4823  0.0940
  83. (0.00031) RY ( 5) N  5            s( 29.01%)p 0.60( 17.39%)d 1.85( 53.60%)
                                         0.0000 -0.0188  0.5383 -0.0022 -0.4090
                                         0.0032  0.0038  0.0024  0.0810  0.0823
                                         0.3345  0.5107 -0.3658  0.1507
  84. (0.00024) RY ( 6) N  5            s( 35.94%)p 0.61( 21.94%)d 1.17( 42.12%)
                                         0.0000 -0.0047  0.5995 -0.0356 -0.0150
                                        -0.0010  0.2701 -0.0137 -0.3805 -0.0938
                                         0.1088 -0.1768  0.5908 -0.1424
  85. (0.00003) RY ( 7) N  5            s(  5.98%)p 1.85( 11.04%)d13.88( 82.98%)
  86. (0.00002) RY ( 8) N  5            s(  0.74%)p 0.29(  0.22%)d99.99( 99.04%)
  87. (0.00000) RY ( 9) N  5            s(  0.02%)p99.99(  3.96%)d99.99( 96.01%)
  88. (0.01020) RY ( 1) C  6            s(  5.28%)p16.50( 87.14%)d 1.44(  7.58%)
                                         0.0000 -0.0259  0.2283  0.0413 -0.0414
                                        -0.0520  0.9172 -0.0187  0.1537  0.2704
                                         0.0431  0.0218 -0.0034 -0.0185
  89. (0.00366) RY ( 2) C  6            s(  0.16%)p99.99( 94.45%)d33.24(  5.38%)
                                         0.0000  0.0402  0.0014  0.0153  0.8928
                                         0.0225 -0.0563  0.0174  0.3784  0.1142
                                         0.0959 -0.1039  0.1441  0.0075
  90. (0.00291) RY ( 3) C  6            s(  0.40%)p99.99( 80.08%)d48.91( 19.52%)
                                         0.0000  0.0146  0.0615  0.0086  0.3686
                                         0.0185  0.1225 -0.0304 -0.8054  0.0799
                                        -0.2943  0.2547  0.1885  0.0422
  91. (0.00119) RY ( 4) C  6            s( 66.23%)p 0.02(  1.59%)d 0.49( 32.19%)
                                         0.0000 -0.0026  0.8138 -0.0112  0.0931
                                        -0.0293 -0.0509 -0.0047 -0.0601 -0.4590
                                        -0.0373 -0.2203 -0.2026 -0.1423
  92. (0.00045) RY ( 5) C  6            s(  1.53%)p 7.87( 12.07%)d56.32( 86.40%)
                                         0.0000  0.0072  0.1236 -0.0014 -0.0037
                                        -0.0025 -0.1791  0.0170 -0.2972  0.6550
                                         0.2966 -0.4808 -0.3305 -0.0810
  93. (0.00033) RY ( 6) C  6            s( 16.90%)p 0.66( 11.16%)d 4.26( 71.94%)
                                         0.0000  0.0002  0.4111 -0.0016 -0.0465
                                        -0.0098 -0.2674 -0.0220  0.1932  0.3877
                                         0.0389  0.7107 -0.1544  0.1967
  94. (0.00011) RY ( 7) C  6            s(  9.09%)p 0.67(  6.10%)d 9.33( 84.81%)
                                         0.0000  0.0013  0.3016 -0.0052 -0.2117
                                         0.0190 -0.1252  0.0018  0.0105  0.1493
                                         0.1633 -0.1940  0.8529  0.1845
  95. (0.00001) RY ( 8) C  6            s(  0.07%)p16.97(  1.16%)d99.99( 98.78%)
  96. (0.00001) RY ( 9) C  6            s(  0.50%)p12.81(  6.43%)d99.99( 93.07%)
  97. (0.00480) RY ( 1) C  7            s(  5.74%)p15.13( 86.87%)d 1.29(  7.38%)
[...]
  9 H                -0.5       0.5       0.2      -0.0      -0.1      -0.2
 10 H                -0.3       0.0      -0.0      -0.0      -0.0      -0.0
 11 H                 0.2      -0.0      -0.1      -0.0      -0.0      -0.0
 13 H                -0.4       0.5       0.1       0.2      -0.1      -0.3

                     48        49        50        51        52        53   
                   0.00000   0.00000   0.00000   0.00000   0.00000   0.00000
                   0.00004   0.00003   0.00002   0.00430   0.00295   0.00117
                  --------  --------  --------  --------  --------  --------
  0 C               117.4     128.7     109.0     -41.3      -5.1     -18.4
  1 C                -3.9      -4.7      -3.7     193.7     151.4     205.7
  2 C                 0.0      -0.2       0.2     -10.1      -8.0     -75.1
  3 O                 0.0      -0.0      -0.0      -1.4      -0.4       0.8
  4 N                -0.1      -0.0      -0.0      -0.2       0.1       0.1
  5 C                 0.2      -0.1       0.3       0.4      -0.5       0.9
  6 C                -1.9      -5.5      -4.5     -38.2      -4.1      -8.5
  7 H                -1.7      -7.8      -0.2       0.0      -0.0       0.6
  8 H               -10.0     -10.7      -0.9       0.4       0.3      -0.2
  9 H                 0.1       0.2      -0.1      -3.1     -33.6      -5.5
 10 H                -0.0      -0.0       0.0       0.1      -0.1       0.1
 11 H                -0.0      -0.0      -0.0      -0.0      -0.1      -0.5
 13 H                 0.1       0.1      -0.1      -0.2       0.2      -0.1

                     54        55        56        57        58        59   
                   0.00000   0.00000   0.00000   0.00000   0.00000   0.00000
                   0.00097   0.00036   0.00024   0.00012   0.00010   0.00006
                  --------  --------  --------  --------  --------  --------
  0 C                -3.1       0.1     -12.7      -5.7     -10.4      -2.1
  1 C               156.4     117.7     119.4     117.1     138.5     118.7
  2 C               -18.3      -6.1      -5.9      -7.2      -6.5      -6.4
  3 O                 0.1      -0.1      -0.3      -0.0      -0.1       0.1
  4 N                -0.2      -0.0      -0.1      -0.0      -0.0      -0.0
  5 C                 2.2       1.7       0.1      -0.1       0.4       0.4
  6 C               -33.8     -11.7      -0.6      -1.7     -15.9      -2.4
  7 H                -0.3      -0.1       0.4       0.2      -0.1       0.1
  8 H                 0.4      -0.0      -0.3      -0.1       0.3      -0.0
  9 H                -2.5      -1.6      -0.2      -2.5      -5.9      -8.6
 10 H                -0.8       0.2       0.1      -0.0      -0.0      -0.1
 11 H                -0.3       0.2       0.3       0.0      -0.0       0.0
 13 H                 0.2      -0.4      -0.1       0.0      -0.3       0.2

                     60        61        62        63        64        65   
                   0.00000   0.00000   0.00000   0.00000   0.00000   0.00000
                   0.00487   0.00373   0.00230   0.00143   0.00055   0.00029
                  --------  --------  --------  --------  --------  --------
  0 C                -1.1      -0.9       1.4      -0.9       0.6      -0.3
  1 C               -14.1     -28.7     -49.6     -10.0      -4.3     -33.9
  2 C               142.3     162.8     168.6     126.2     110.1     163.5
  3 O               -16.6      -6.0      -9.0      -0.4      -0.8      -1.9
  4 N                -4.2      -3.1      -0.4      -0.0       0.9      -0.8
  5 C                -0.5      -9.0      -0.6      -0.6      -0.9      -0.7
  6 C                -0.1       4.0       2.1       0.1       0.4       0.7
  7 H                -0.2      -0.1      -0.8      -0.2      -0.1      -0.2
  9 H                 0.5      -0.3      -0.7      -0.0       0.0      -0.2
 10 H                -2.1     -13.9      -2.2      -9.1      -2.6     -13.7
 11 H                -3.7      -4.6      -8.9      -5.1      -3.2     -12.4
 12 H                 0.0      -0.2       0.0      -0.0      -0.0      -0.0

                     66        67        68        69        70        71   
                   0.00000   0.00000   0.00000   0.00000   0.00000   0.00000
                   0.00014   0.00008   0.00001   0.00240   0.00203   0.00073
                  --------  --------  --------  --------  --------  --------
  0 C                -0.1      -0.2       0.2      -0.3      -0.5      -0.0
  1 C                -4.7      -5.4      -2.7      -1.0       0.5       0.3
  2 C               132.9     116.7     107.6      -4.4      -8.1      -8.6
  3 O                -5.5      -1.5      -0.3     107.9     110.0     115.5
  4 N                -0.0       0.1      -0.0      -1.5      -1.4      -6.3
  5 C                 0.3      -0.1       0.1      -0.6       0.1      -1.1
  6 C                -0.4       0.0      -0.0       0.2      -0.1      -0.1
  7 H                -0.0      -0.0      -0.0      -0.1      -0.3      -0.1
 10 H                -4.6      -6.3      -1.9      -0.0      -0.2       0.0
 11 H               -18.0      -3.3      -2.8      -0.0       0.0       0.4

                     72        73        74        75        76        77   
                   0.00000   0.00000   0.00000   0.00000   0.00000   0.00000
                   0.00032   0.00026   0.00010   0.00003   0.00002   0.00000
                  --------  --------  --------  --------  --------  --------
  0 C                -0.1      -0.0      -0.0      -0.0      -0.0      -0.0
  1 C                 0.7       0.3      -0.1      -0.7      -0.1      -0.1
  2 C                -7.2      -1.3      -6.6      -3.8      -0.9      -1.3
  3 O               131.3     101.6     117.2     105.1     101.3     102.0
  4 N               -24.0      -0.4     -10.5      -0.1      -0.2      -0.5
  5 C                 1.9      -0.1      -0.1      -0.9      -0.1       0.0
  6 C                -1.7      -0.1      -0.2       0.4       0.0      -0.0
  9 H                -0.1      -0.0      -0.0       0.0      -0.0      -0.0
 10 H                -0.2      -0.0      -0.1      -0.1      -0.0      -0.0
 11 H                -0.6       0.0       0.2       0.0      -0.0       0.0

                     78        79        80        81        82        83   
                   0.00000   0.00000   0.00000   0.00000   0.00000   0.00000
                   0.00400   0.00283   0.00113   0.00070   0.00031   0.00024
                  --------  --------  --------  --------  --------  --------
  1 C                 0.5      -0.2      -0.2       0.0      -0.2      -0.6
  2 C                -1.2      -2.6      -0.6      -1.0      -2.8      -0.1
  3 O                -2.3     -17.8      -3.4      -1.7     -13.7      -3.1
  4 N               117.4     140.7     118.4     107.6     141.3     134.0
  5 C               -13.4     -19.0     -15.1      -4.3     -27.3     -30.5
  6 C                -0.9      -2.3       1.3      -0.3       3.0       1.1
 10 H                -0.0      -0.1       0.0      -0.0       0.0      -0.1
 12 H                 0.0       1.2      -0.5      -0.1      -0.5      -0.8

                     84        85        86        87        88        89   
                   0.00000   0.00000   0.00000   0.00000   0.00000   0.00000
                   0.00003   0.00002   0.00000   0.01020   0.00366   0.00291
                  --------  --------  --------  --------  --------  --------
  0 C                 0.0      -0.0      -0.0      -0.6      -0.6      -0.4
  1 C                -0.1      -0.1      -0.0      -0.2       3.4       0.6
  2 C                 0.0       0.0      -0.2      -5.5      -2.4      -0.9
  3 O                -4.1      -0.9      -0.4      -1.7      -0.6      -0.3
  4 N               107.3     101.5     102.7     -57.4     -16.6      -6.0
  5 C                -2.6      -0.3      -2.0     191.6     180.8     118.7
  6 C                -0.2      -0.2      -0.0     -24.1     -33.4      -9.3
  7 H                 0.0       0.0      -0.0      -0.3      -0.6       0.0
 10 H                -0.0      -0.0      -0.0      -0.2       0.0      -0.1
 11 H                -0.0      -0.0      -0.0      -0.1      -0.1      -0.0
 12 H                -0.3       0.0      -0.0      -3.0     -29.2      -2.3
 13 H                -0.0      -0.0      -0.0       1.3      -0.6      -0.1

                     90        91        92        93        94        95   
                   0.00000   0.00000   0.00000   0.00000   0.00000   0.00000
                   0.00119   0.00045   0.00033   0.00011   0.00001   0.00001
                  --------  --------  --------  --------  --------  --------
  0 C                -0.1       0.2       0.9      -0.1      -0.2      -0.3
  1 C                 5.0       0.0       0.1      -0.3      -0.1      -0.3
  2 C                -3.7       0.0      -0.1       0.2      -0.2      -0.1
  3 O                 1.1       0.1      -0.0      -0.1       0.0      -0.0
  4 N               -21.1      -3.2      -1.9      -6.0      -0.5      -1.0
  5 C               204.7     114.3     131.8     120.6     104.8     106.0
  6 C               -75.7      -8.6     -25.3      -5.2       0.7      -2.3
  7 H                -0.9      -0.0      -0.4      -0.0       0.0      -0.1
 10 H                -0.2      -0.0      -0.0      -0.0      -0.0       0.0
 12 H                -8.6      -2.9      -4.8      -9.1      -4.6      -1.9
 13 H                -0.5       0.0      -0.2      -0.0       0.0      -0.0

                     96        97        98        99       100       101   
                   0.00000   0.00000   0.00000   0.00000   0.00000   0.00000
                   0.00480   0.00327   0.00157   0.00082   0.00044   0.00024
                  --------  --------  --------  --------  --------  --------
  0 C               -23.4     -17.4     -16.2      -4.4      -0.8      -5.8
  1 C               -35.1     -10.0     -22.5     -23.0      -7.6      -1.0
  2 C                 1.6      -1.2       2.4       0.5       0.9      -0.2
  3 O                -0.1      -0.2      -0.8      -0.0      -0.0       0.0
  4 N                -2.4       0.1       1.9      -0.1      -0.0      -0.4
  5 C               -23.7      -6.0    -116.8      -6.4      -3.7      -4.8
  6 C               193.5     160.8     260.2     136.0     112.5     114.5
  7 H                 0.4      -0.5       0.8      -0.3       0.0       0.3
  8 H                -0.1       0.9      -0.2       0.3      -0.1      -0.2
  9 H                -0.1       0.4      -0.3       0.6      -0.4       0.2
 11 H                -0.0       0.0      -0.1      -0.0      -0.0       0.0
 12 H                 2.2      -0.2      -3.8      -0.1      -0.0      -0.0
 13 H               -12.9     -26.8      -4.8      -3.2      -0.8      -2.5

                    102       103       104       105       106       107   
                   0.00000   0.00000   0.00000   0.00000   0.00000   0.00000
                   0.00011   0.00009   0.00005   0.00287   0.00016   0.00013
                  --------  --------  --------  --------  --------  --------
  0 C                -2.3     -10.4      -8.4     -43.4      -2.9      -4.9
  1 C                -2.9      -4.7     -10.8       1.4      -0.2      -0.0
  2 C                 0.3       0.4      -0.1      -1.7      -0.0      -0.1
  3 O                -0.0      -0.1      -0.0      -0.5      -0.0      -0.1
  4 N                 0.0       0.2      -0.2       0.1      -0.0      -0.0
  5 C                -1.3     -11.6      -1.0      -2.2      -0.0      -0.1
  6 C               108.1     130.2     129.5       1.6      -0.1      -0.0
  7 H                -0.0       0.3       0.0     145.4     103.4     105.8
  8 H                -0.1       0.0       0.2      -0.8      -0.2      -0.7
 12 H                -0.0      -0.3      -0.2      -0.0      -0.0      -0.0
 13 H                -1.8      -3.9      -9.1       0.1      -0.0      -0.0

                    108       109       110       111       112       113   
                   0.00000   0.00000   0.00000   0.00000   0.00000   0.00000
                   0.00002   0.00147   0.00019   0.00012   0.00002   0.00250
                  --------  --------  --------  --------  --------  --------
  0 C                -6.2     -41.2      -2.7      -5.1      -6.8       0.1
  1 C                -0.4       0.4      -0.3       0.0      -0.2     -40.2
  2 C                 0.0       0.0      -0.0      -0.0      -0.0      -0.6
  6 C                -0.4       0.6      -0.3      -0.0      -0.2       0.2
  7 H               107.1      -0.8      -0.2      -0.7      -0.0       0.0
  8 H                 0.0     142.7     103.6     105.9     107.3      -0.7
  9 H                -0.0      -0.7      -0.0      -0.0      -0.0     142.5
 10 H                -0.0      -0.0      -0.0      -0.0      -0.0      -0.3
 13 H                -0.0      -0.9      -0.0      -0.0      -0.0      -0.7

                    114       115       116       117       118       119   
                   0.00000   0.00000   0.00000   0.00000   0.00000   0.00000
                   0.00016   0.00008   0.00002   0.00443   0.00015   0.00010
                  --------  --------  --------  --------  --------  --------
  0 C                -0.2       0.2      -0.6      -0.3      -0.0      -0.0
  1 C                -3.2      -7.1      -4.9      -0.5      -0.3       0.1
  2 C                -0.2      -0.6      -0.0     -34.6      -2.6      -4.9
  3 O                -0.1      -0.1      -0.0       0.1      -0.4      -0.1
  4 N                 0.0      -0.0      -0.0      -0.1      -0.0      -0.0
  5 C                -0.0       0.0      -0.0      -0.4      -0.0      -0.0
  6 C                -0.3       0.0      -0.4       0.2      -0.1      -0.1
  9 H               104.1     107.6     106.0      -0.3      -0.0      -0.0
 10 H                -0.1       0.0      -0.0     136.4     103.9     105.8
 11 H                -0.0      -0.0      -0.0      -0.5      -0.4      -0.7

                    120       121       122       123       124       125   
                   0.00000   0.00000   0.00000   0.00000   0.00000   0.00000
                   0.00002   0.00209   0.00014   0.00009   0.00003   0.00193
                  --------  --------  --------  --------  --------  --------
  0 C                -0.0       0.1      -0.0      -0.1      -0.0       0.1
  1 C                -0.4      -0.4       0.0      -0.2      -0.3       0.0
  2 C                -6.4     -39.4      -4.4      -3.9      -6.2      -0.2
  3 O                -0.6       0.4      -0.2      -0.2      -0.7       0.0
  4 N                -0.1       0.0      -0.0      -0.0      -0.0      -0.6
  5 C                -0.0      -0.2       0.0       0.0      -0.0     -43.4
  6 C                -0.0      -0.2      -0.0      -0.0       0.0      -2.9
 10 H               107.5      -0.5      -0.7      -0.4      -0.0       0.0
 11 H                 0.0     140.3     105.4     104.9     107.2      -0.0
 12 H                -0.0      -0.0      -0.0      -0.0      -0.0     148.0
 13 H                -0.0      -0.0      -0.0      -0.0       0.0      -1.0

                    126       127       128       129       130       131   
                   0.00000   0.00000   0.00000   0.00000   0.00000   0.00000
                   0.00018   0.00008   0.00003   0.00226   0.00015   0.00008
                  --------  --------  --------  --------  --------  --------
  0 C                -0.0       0.0      -0.0       0.2      -0.2       0.1
  1 C                -0.0      -0.0      -0.0      -0.2      -0.4       0.1
  4 N                -0.1       0.1      -1.3       0.1      -0.1      -0.0
  5 C                -3.0      -8.3      -4.2      -0.6      -0.2      -0.5
  6 C                -0.1      -0.4      -0.4     -41.6      -2.9      -7.7
  8 H                -0.0      -0.0      -0.0      -0.9      -0.0      -0.0
  9 H                -0.0      -0.0      -0.0      -0.7      -0.0      -0.0
 12 H               103.3     108.7     105.9      -1.0      -0.0      -0.0
 13 H                -0.0       0.0      -0.0     144.7     104.0     108.0

                    132   
                   0.00000
                   0.00002
                  --------
  0 C                -0.5
  1 C                -0.6
  6 C                -4.9
 13 H               106.0

Storing NBOs: 4608.nbo
                                    *** NBOs were stored ***

                                *** returned from GENNBO program ***

-------
TIMINGS
-------

Total SCF time: 0 days 0 hours 0 min 5 sec 

Total time                  ....       5.330 sec
Sum of individual times     ....       5.793 sec  (108.7%)

Fock matrix formation       ....       3.564 sec  ( 66.9%)
  Coulomb formation         ....       1.906 sec  ( 53.5% of F)
  Split-RI-J                ....       1.899 sec  ( 53.3% of F)
  XC integration            ....       1.653 sec  ( 46.4% of F)
    Basis function eval.    ....       0.541 sec  ( 32.8% of XC)
    Density eval.           ....       0.301 sec  ( 18.2% of XC)
    XC-Functional eval.     ....       0.094 sec  (  5.7% of XC)
    XC-Potential eval.      ....       0.679 sec  ( 41.1% of XC)
Diagonalization             ....       0.019 sec  (  0.4%)
Density matrix formation    ....       0.002 sec  (  0.0%)
Population analysis         ....       1.214 sec  ( 22.8%)
Initial guess               ....       0.353 sec  (  6.6%)
Orbital Transformation      ....       0.000 sec  (  0.0%)
Orbital Orthonormalization  ....       0.000 sec  (  0.0%)
DIIS solution               ....       0.004 sec  (  0.1%)
SOSCF solution              ....       0.012 sec  (  0.2%)
Grid generation             ....       0.624 sec  ( 11.7%)
           ************************************************************
           *              Shut down parallel processing               *
           ************************************************************

-------------------------   --------------------
FINAL SINGLE POINT ENERGY      -323.989580793227
-------------------------   --------------------


                            ***************************************
                            *     ORCA property calculations      *
                            ***************************************

                                    ---------------------
                                    Active property flags
                                    ---------------------
   (+) Dipole Moment


------------------------------------------------------------------------------
                       ORCA ELECTRIC PROPERTIES CALCULATION
------------------------------------------------------------------------------

Dipole Moment Calculation                       ... on
Quadrupole Moment Calculation                   ... off
Polarizability Calculation                      ... off
GBWName                                         ... 4608.gbw
Electron density file                           ... 4608.scfp.tmp

-------------
DIPOLE MOMENT
-------------
                                X             Y             Z
Electronic contribution:     -2.97780       2.52475       0.43317
Nuclear contribution   :      3.83351      -3.50233      -0.82511
                        -----------------------------------------
Total Dipole Moment    :      0.85571      -0.97759      -0.39194
                        -----------------------------------------
Magnitude (a.u.)       :      1.35703
Magnitude (Debye)      :      3.44929


Timings for individual modules:

Sum of individual times         ...        6.489 sec (=   0.108 min)
GTO integral calculation        ...        0.480 sec (=   0.008 min)   7.4 %
SCF iterations                  ...        6.009 sec (=   0.100 min)  92.6 %
                             ****ORCA TERMINATED NORMALLY****
TOTAL RUN TIME: 0 days 0 hours 0 minutes 6 seconds 886 msec
