
                                 *****************
                                 * O   R   C   A *
                                 *****************

           --- An Ab Initio, DFT and Semiempirical electronic structure package ---

                  #######################################################
                  #                        -***-                        #
                  #  Department of molecular theory and spectroscopy    #
                  #              Directorship: Frank Neese              #
                  # Max Planck Institute for Chemical Energy Conversion #
                  #                  D-45470 Muelheim/Ruhr              #
                  #                       Germany                       #
                  #                                                     #
                  #                  All rights reserved                #
                  #                        -***-                        #
                  #######################################################


                         Program Version 3.0.3 - RELEASE   -


 With contributions from (in alphabetic order):
   Ute Becker             : Parallelization
   Dmytro Bykov           : SCF Hessian
   Dmitry Ganyushin       : Spin-Orbit,Spin-Spin,Magnetic field MRCI
   Andreas Hansen         : Spin unrestricted coupled pair/coupled cluster methods
   Dimitrios Liakos       : Extrapolation schemes; parallel MDCI
   Robert Izsak           : Overlap fitted RIJCOSX, COSX-SCS-MP3
   Christian Kollmar      : KDIIS, OOCD, Brueckner-CCSD(T), CCSD density
   Simone Kossmann        : Meta GGA functionals, TD-DFT gradient, OOMP2, MP2 Hessian
   Taras Petrenko         : DFT Hessian,TD-DFT gradient, ASA and ECA modules, normal mode analysis, Resonance Raman, ABS, FL, XAS/XES, NRVS
   Christoph Reimann      : Effective Core Potentials
   Michael Roemelt        : Restricted open shell CIS
   Christoph Riplinger    : Improved optimizer, TS searches, QM/MM, DLPNO-CCSD
   Barbara Sandhoefer     : DKH picture change effects
   Igor Schapiro          : Molecular dynamics
   Kantharuban Sivalingam : CASSCF convergence, NEVPT2
   Boris Wezisla          : Elementary symmetry handling
   Frank Wennmohs         : Technical directorship


 We gratefully acknowledge several colleagues who have allowed us to
 interface, adapt or use parts of their codes:
   Stefan Grimme, W. Hujo, H. Kruse, T. Risthaus : VdW corrections, initial TS optimization,
                                                   DFT functionals, gCP
   Ed Valeev                                     : LibInt (2-el integral package), F12 methods
   Garnet Chan, S. Sharma, R. Olivares           : DMRG
   Ulf Ekstrom                                   : XCFun DFT Library
   Mihaly Kallay                                 : mrcc  (arbitrary order and MRCC methods)
   Andreas Klamt, Michael Diedenhofen            : otool_cosmo (COSMO solvation model)
   Frank Weinhold                                : gennbo (NPA and NBO analysis)
   Christopher J. Cramer and Donald G. Truhlar   : smd solvation model


 Your calculation uses the libint2 library for the computation of 2-el integrals
 For citations please refer to: http://libint.valeyev.net

 This ORCA versions uses:
   CBLAS   interface :  Fast vector & matrix operations
   LAPACKE interface :  Fast linear algebra routines
   SCALAPACK package :  Parallel linear algebra routines


Your calculation utilizes the basis: Ahlrichs-VDZ
Cite in your paper:
H - Kr: A. Schaefer, H. Horn and R. Ahlrichs, J. Chem. Phys. 97, 2571 (1992).

Your calculation utilizes the basis: Ahlrichs SVPalls1+f
Cite in your paper:
Rb - Xe: A. Schaefer, C. Huber and R. Ahlrichs, J. Chem. Phys. 100, 5829 (1994).

================================================================================
                                        WARNINGS
                       Please study these warnings very carefully!
================================================================================
Now building the actual basis set


INFO   : the flag for use of LIBINT has been found!

================================================================================
                                       INPUT FILE
================================================================================
NAME = 4632.inp
|  1> ! RI PBE def2-SVP def2-SVP/J NBO PAL2
|  2> % maxcore 2000
|  3> % output
|  4>     # printlevel mini
|  5>     print[ P_Basis ] 0
|  6>     print[ P_SCFInfo ] 1
|  7>     print[ P_SCFIterInfo ] 1
|  8>     print[ P_OrbEn ] 0
|  9>     print[ P_Cartesian ] 0
| 10> end
| 11> *xyz 0 1
| 12>  C        1.1378500000    -0.0421970000     0.4149730000 
| 13>  C        2.4052770000     0.0725610000     0.0302760000 
| 14>  C        3.2148490000     1.3433780000    -0.1160840000 
| 15>  C        4.5978440000     0.8881820000    -0.5855560000 
| 16>  C        4.5150350000    -0.6226150000    -0.6842950000 
| 17>  O        5.3826600000    -1.3899440000    -1.0176920000 
| 18>  N        3.2430480000    -0.9751610000    -0.3171000000 
| 19>  H        0.5642480000     0.8392950000     0.6664300000 
| 20>  H        0.6448170000    -1.0034820000     0.4886770000 
| 21>  H        3.2553140000     1.8715030000     0.8377590000 
| 22>  H        2.7341700000     2.0113930000    -0.8323530000 
| 23>  H        5.4013290000     1.1462670000     0.1062330000 
| 24>  H        4.8798490000     1.2836730000    -1.5627270000 
| 25>  H        2.9594100000    -1.9416420000    -0.3086330000 
| 26> *
| 27> 
| 28>                          ****END OF INPUT****
================================================================================

                       ****************************
                       * Single Point Calculation *
                       ****************************

--------------------------------
INTERNAL COORDINATES (ANGSTROEM)
--------------------------------
 C      0   0   0   0.000000     0.000     0.000
 C      1   0   0   1.329486     0.000     0.000
 C      2   1   0   1.513871   127.607     0.000
 C      3   2   1   1.529798   105.268   180.057
 C      4   3   2   1.516283   105.491   359.938
 O      5   4   3   1.205289   127.809   180.049
 N      5   4   3   1.370063   106.836     0.041
 H      1   2   3   1.081332   120.174     0.000
 H      1   2   3   1.082859   122.031   180.007
 H      3   2   1   1.091041   109.978    58.923
 H      3   2   1   1.091026   109.989   301.212
 H      4   3   2   1.091223   113.624   241.224
 H      4   3   2   1.091239   113.615   118.629
 H      7   5   4   1.007277   120.703   179.986

---------------------------
INTERNAL COORDINATES (A.U.)
---------------------------
 C      0   0   0   0.000000     0.000     0.000
 C      1   0   0   2.512364     0.000     0.000
 C      2   1   0   2.860801   127.607     0.000
 C      3   2   1   2.890900   105.268   180.057
 C      4   3   2   2.865360   105.491   359.938
 O      5   4   3   2.277665   127.809   180.049
 N      5   4   3   2.589043   106.836     0.041
 H      1   2   3   2.043421   120.174     0.000
 H      1   2   3   2.046306   122.031   180.007
 H      3   2   1   2.061768   109.978    58.923
 H      3   2   1   2.061740   109.989   301.212
 H      4   3   2   2.062113   113.624   241.224
 H      4   3   2   2.062143   113.615   118.629
 H      7   5   4   1.903478   120.703   179.986



           ************************************************************
           *        Program running with 2 parallel MPI-processes     *
           *              working on a common directory               *
           ************************************************************
------------------------------------------------------------------------------
                           ORCA GTO INTEGRAL CALCULATION
                           -- RI-GTO INTEGRALS CHOSEN --
------------------------------------------------------------------------------

                         BASIS SET STATISTICS AND STARTUP INFO

Gaussian basis set:
 # of primitive gaussian shells          ...  119
 # of primitive gaussian functions       ...  217
 # of contracted shells                  ...   63
 # of contracted basis functions         ...  133
 Highest angular momentum                ...    2
 Maximum contraction depth               ...    5
Auxiliary gaussian basis set:
 # of primitive gaussian shells          ...  224
 # of primitive gaussian functions       ...  602
 # of contracted shells                  ...  140
 # of contracted aux-basis functions     ...  420
 Highest angular momentum                ...    4
 Maximum contraction depth               ...    7
Ratio of auxiliary to basis functions    ...  3.16
Integral package used                  ... LIBINT
 One Electron integrals                  ... done
 Ordering auxiliary basis shells         ... done
 Integral threshhold             Thresh  ...  1.000e-10
 Primitive cut-off               TCut    ...  1.000e-11
 Pre-screening matrix                    ... done
 Shell pair data                         ... 
 Ordering of the shell pairs             ... done (   0.000 sec) 1951 of 2016 pairs
 Determination of significant pairs      ... done (   0.000 sec)
 Creation of shell pair data             ... done (   0.000 sec)
 Storage of shell pair data              ... done (   0.000 sec)
 Shell pair data done in (   0.001 sec)
 Computing two index integrals           ... done
 Cholesky decomposition of the V-matrix  ... done


Timings:
 Total evaluation time                   ...   0.159 sec (  0.003 min)
 One electron matrix time                ...   0.019 sec (  0.000 min) = 11.7%
 Schwartz matrix evaluation time         ...   0.070 sec (  0.001 min) = 44.0%
 Two index repulsion integral time       ...   0.008 sec (  0.000 min) =  5.3%
 Cholesky decomposition of V             ...   0.003 sec (  0.000 min) =  2.0%
 Three index repulsion integral time     ...   0.000 sec (  0.000 min) =  0.0%

           ************************************************************
           *              Shut down parallel processing               *
           ************************************************************


           ************************************************************
           *        Program running with 2 parallel MPI-processes     *
           *              working on a common directory               *
           ************************************************************
-------------------------------------------------------------------------------
                                 ORCA SCF
-------------------------------------------------------------------------------

------------
SCF SETTINGS
------------
Hamiltonian:
 Density Functional     Method          .... DFT(GTOs)
 Exchange Functional    Exchange        .... PBE
   PBE kappa parameter  XKappa          ....  0.804000
 Correlation Functional Correlation     .... PBE
 LDA part of GGA corr.  LDAOpt          .... PW91-LDA
 Gradients option       PostSCFGGA      .... off
   NL short-range parameter             ....  6.400000
 RI-approximation to the Coulomb term is turned on
   Number of auxiliary basis functions  .... 420


General Settings:
 Integral files         IntName         .... 4632
 Hartree-Fock type      HFTyp           .... RHF
 Total Charge           Charge          ....    0
 Multiplicity           Mult            ....    1
 Number of Electrons    NEL             ....   52
 Basis Dimension        Dim             ....  133
 Nuclear Repulsion      ENuc            ....    292.2977898273 Eh

Convergence Acceleration:
 DIIS                   CNVDIIS         .... on
   Start iteration      DIISMaxIt       ....    12
   Startup error        DIISStart       ....  0.200000
   # of expansion vecs  DIISMaxEq       ....     5
   Bias factor          DIISBfac        ....   1.050
   Max. coefficient     DIISMaxC        ....  10.000
 Newton-Raphson         CNVNR           .... off
 SOSCF                  CNVSOSCF        .... on
   Start iteration      SOSCFMaxIt      ....   150
   Startup grad/error   SOSCFStart      ....  0.003300
 Level Shifting         CNVShift        .... on
   Level shift para.    LevelShift      ....    0.2500
   Turn off err/grad.   ShiftErr        ....    0.0010
 Zerner damping         CNVZerner       .... off
 Static damping         CNVDamp         .... on
   Fraction old density DampFac         ....    0.7000
   Max. Damping (<1)    DampMax         ....    0.9800
   Min. Damping (>=0)   DampMin         ....    0.0000
   Turn off err/grad.   DampErr         ....    0.1000
 Fernandez-Rico         CNVRico         .... off

SCF Procedure:
 Maximum # iterations   MaxIter         ....   125
 SCF integral mode      SCFMode         .... Direct
   Integral package                     .... LIBINT
 Reset frequeny         DirectResetFreq ....    20
 Integral Threshold     Thresh          ....  1.000e-10 Eh
 Primitive CutOff       TCut            ....  1.000e-11 Eh

Convergence Tolerance:
 Convergence Check Mode ConvCheckMode   .... Total+1el-Energy
 Energy Change          TolE            ....  1.000e-06 Eh
 1-El. energy change                    ....  1.000e-03 Eh
 Orbital Gradient       TolG            ....  5.000e-05
 Orbital Rotation angle TolX            ....  5.000e-05
 DIIS Error             TolErr          ....  1.000e-06


Diagonalization of the overlap matrix:
Smallest eigenvalue                        ... 7.640e-04
Time for diagonalization                   ...    0.010 sec
Threshold for overlap eigenvalues          ... 1.000e-08
Number of eigenvalues below threshold      ... 0
Time for construction of square roots      ...    0.002 sec
Total time needed                          ...    0.013 sec

-------------------
DFT GRID GENERATION
-------------------

General Integration Accuracy     IntAcc      ...  4.340
Radial Grid Type                 RadialGrid  ... Gauss-Chebyshev
Angular Grid (max. acc.)         AngularGrid ... Lebedev-110
Angular grid pruning method      GridPruning ... 3 (G Style)
Weight generation scheme         WeightScheme... Becke
Basis function cutoff            BFCut       ...    1.0000e-10
Integration weight cutoff        WCut        ...    1.0000e-14
Grids for H and He will be reduced by one unit

# of grid points (after initial pruning)     ...  17256 (   0.0 sec)
# of grid points (after weights+screening)   ...  16117 (   0.0 sec)
nearest neighbour list constructed           ...    0.0 sec
Grid point re-assignment to atoms done       ...    0.0 sec
Grid point division into batches done        ...    0.0 sec
Reduced shell lists constructed in    0.1 sec

Total number of grid points                  ...    16117
Total number of batches                      ...      258
Average number of points per batch           ...       62
Average number of grid points per atom       ...     1151
Average number of shells per batch           ...    50.70 (80.48%)
Average number of basis functions per batch  ...   107.68 (80.97%)
Average number of large shells per batch     ...    42.10 (83.04%)
Average number of large basis fcns per batch ...    88.24 (81.94%)
Maximum spatial batch extension              ...  19.56, 20.05, 25.60 au
Average spatial batch extension              ...   1.46,  1.49,  1.67 au

Time for grid setup =    0.128 sec

------------------------------
INITIAL GUESS: MODEL POTENTIAL
------------------------------
Loading Hartree-Fock densities                     ... done
Calculating cut-offs                               ... done
Setting up the integral package                    ... done
Initializing the effective Hamiltonian             ... done
Starting the Coulomb interaction                   ... done (   0.0 sec)
Reading the grid                                   ... done
Mapping shells                                     ... done
Starting the XC term evaluation                    ... done (   0.1 sec)
  promolecular density results
     # of electrons  =     51.992518837
     EX              =    -42.353065395
     EC              =     -1.728742207
     EX+EC           =    -44.081807602
Transforming the Hamiltonian                       ... done (   0.0 sec)
Diagonalizing the Hamiltonian                      ... done (   0.0 sec)
Back transforming the eigenvectors                 ... done (   0.0 sec)
Now organizing SCF variables                       ... done
                      ------------------
                      INITIAL GUESS DONE (   0.3 sec)
                      ------------------
--------------
SCF ITERATIONS
--------------
ITER       Energy         Delta-E        Max-DP      RMS-DP      [F,P]     Damp
               ***  Starting incremental Fock matrix formation  ***
  0   -323.8971236645   0.000000000000 0.18336771  0.00422877  0.2471454 0.7000
  1   -323.9972153727  -0.100091708186 0.11280284  0.00261812  0.0833266 0.7000
                               ***Turning on DIIS***
  2   -324.0288466231  -0.031631250477 0.08796073  0.00318172  0.0319905 0.0000
  3   -324.0827114221  -0.053864798927 0.08652342  0.00183464  0.0531817 0.0000
  4   -324.0950862480  -0.012374825920 0.01470745  0.00050139  0.0209603 0.0000
                      *** Initiating the SOSCF procedure ***
                           *** Shutting down DIIS ***
                      *** Re-Reading the Fockian *** 
                      *** Removing any level shift *** 
ITER      Energy       Delta-E        Grad      Rot      Max-DP    RMS-DP
  5   -324.09677037  -0.0016841175  0.001031  0.001031  0.004619  0.000163
               *** Restarting incremental Fock matrix formation ***
  6   -324.09683113  -0.0000607634  0.000663  0.003959  0.003331  0.000124
  7   -324.09680717   0.0000239595  0.001538  0.002394  0.003546  0.000087
  8   -324.09683851  -0.0000313449  0.000222  0.000735  0.001387  0.000040
  9   -324.09683664   0.0000018720  0.000341  0.000640  0.000772  0.000021
 10   -324.09683919  -0.0000025515  0.000070  0.000257  0.000307  0.000013
 11   -324.09683889   0.0000003008  0.000126  0.000183  0.000232  0.000008
                 **** Energy Check signals convergence ****
              ***Rediagonalizing the Fockian in SOSCF/NRSCF***

               *****************************************************
               *                     SUCCESS                       *
               *           SCF CONVERGED AFTER  12 CYCLES          *
               *****************************************************

Setting up the final grid:

General Integration Accuracy     IntAcc      ...  4.670
Radial Grid Type                 RadialGrid  ... Gauss-Chebyshev
Angular Grid (max. acc.)         AngularGrid ... Lebedev-302
Angular grid pruning method      GridPruning ... 3 (G Style)
Weight generation scheme         WeightScheme... Becke
Basis function cutoff            BFCut       ...    1.0000e-10
Integration weight cutoff        WCut        ...    1.0000e-14
Grids for H and He will be reduced by one unit

# of grid points (after initial pruning)     ...  67242 (   0.0 sec)
# of grid points (after weights+screening)   ...  61937 (   0.1 sec)
nearest neighbour list constructed           ...    0.0 sec
Grid point re-assignment to atoms done       ...    0.0 sec
Grid point division into batches done        ...    0.2 sec
Reduced shell lists constructed in    0.4 sec

Total number of grid points                  ...    61937
Total number of batches                      ...      975
Average number of points per batch           ...       63
Average number of grid points per atom       ...     4424
Average number of shells per batch           ...    47.45 (75.32%)
Average number of basis functions per batch  ...   100.03 (75.21%)
Average number of large shells per batch     ...    38.40 (80.92%)
Average number of large basis fcns per batch ...    79.70 (79.67%)
Maximum spatial batch extension              ...  14.17, 16.91, 18.67 au
Average spatial batch extension              ...   0.94,  0.95,  1.03 au

Final grid set up in    0.5 sec
Final integration                            ... done (   0.4 sec)
Change in XC energy                          ...    -0.000389547
Integrated number of electrons               ...    52.000055116
Previous integrated no of electrons          ...    51.997760786

----------------
TOTAL SCF ENERGY
----------------

Total Energy       :         -324.09722885 Eh           -8819.13395 eV

Components:
Nuclear Repulsion  :          292.29778983 Eh            7953.82723 eV
Electronic Energy  :         -616.39501867 Eh          -16772.96118 eV

One Electron Energy:        -1017.96203600 Eh          -27700.15525 eV
Two Electron Energy:          401.56701733 Eh           10927.19407 eV

Virial components:
Potential Energy   :         -645.30065292 Eh          -17559.52347 eV
Kinetic Energy     :          321.20342408 Eh            8740.38952 eV
Virial Ratio       :            2.00900926


DFT components:
N(Alpha)           :       26.000027557976 electrons
N(Beta)            :       26.000027557976 electrons
N(Total)           :       52.000055115953 electrons
E(X)               :      -43.116257557833 Eh       
E(C)               :       -1.746014968312 Eh       
E(XC)              :      -44.862272526146 Eh       

---------------
SCF CONVERGENCE
---------------

  Last Energy change         ...   -4.0656e-07  Tolerance :   1.0000e-06
  Last MAX-Density change    ...    5.2814e-05  Tolerance :   1.0000e-05
  Last RMS-Density change    ...    2.1797e-06  Tolerance :   1.0000e-06
  Last Orbital Gradient      ...    9.1534e-06  Tolerance :   5.0000e-05
  Last Orbital Rotation      ...    3.3042e-05  Tolerance :   5.0000e-05

             **** THE GBW FILE WAS UPDATED (4632.gbw) ****
             **** DENSITY FILE WAS UPDATED (4632.scfp.tmp) ****
             **** ENERGY FILE WAS UPDATED (4632.en.tmp) ****

                    ********************************
                    * MULLIKEN POPULATION ANALYSIS *
                    ********************************

-----------------------
MULLIKEN ATOMIC CHARGES
-----------------------
   0 C :   -0.068118
   1 C :   -0.060982
   2 C :    0.061375
   3 C :   -0.021990
   4 C :    0.023681
   5 O :   -0.173492
   6 N :   -0.067494
   7 H :    0.007144
   8 H :    0.004194
   9 H :    0.042494
  10 H :    0.044821
  11 H :    0.049036
  12 H :    0.046686
  13 H :    0.112646
Sum of atomic charges:   -0.0000000

--------------------------------
MULLIKEN REDUCED ORBITAL CHARGES
--------------------------------
  0 C s       :     3.110765  s :     3.110765
      pz      :     1.115622  p :     2.935608
      px      :     0.991884
      py      :     0.828102
      dz2     :     0.002235  d :     0.021744
      dxz     :     0.004619
      dyz     :     0.000807
      dx2y2   :     0.006760
      dxy     :     0.007323
  1 C s       :     3.057762  s :     3.057762
      pz      :     0.998071  p :     2.943717
      px      :     0.932801
      py      :     1.012844
      dz2     :     0.006611  d :     0.059504
      dxz     :     0.011478
      dyz     :     0.008868
      dx2y2   :     0.012369
      dxy     :     0.020177
  2 C s       :     2.901993  s :     2.901993
      pz      :     1.026070  p :     3.005743
      px      :     0.958337
      py      :     1.021336
      dz2     :     0.005009  d :     0.030889
      dxz     :     0.005254
      dyz     :     0.007041
      dx2y2   :     0.005379
      dxy     :     0.008206
  3 C s       :     2.958830  s :     2.958830
      pz      :     1.036157  p :     3.034001
      px      :     1.011004
      py      :     0.986840
      dz2     :     0.005369  d :     0.029159
      dxz     :     0.006977
      dyz     :     0.003747
      dx2y2   :     0.008555
      dxy     :     0.004511
  4 C s       :     3.063329  s :     3.063329
      pz      :     0.874003  p :     2.797099
      px      :     0.870256
      py      :     1.052840
      dz2     :     0.010481  d :     0.115892
      dxz     :     0.022226
      dyz     :     0.012667
      dx2y2   :     0.046698
      dxy     :     0.023820
  5 O s       :     3.715353  s :     3.715353
      pz      :     1.389903  p :     4.440113
      px      :     1.487918
      py      :     1.562292
      dz2     :     0.002400  d :     0.018026
      dxz     :     0.003407
      dyz     :     0.002707
      dx2y2   :     0.003901
      dxy     :     0.005611
  6 N s       :     3.363560  s :     3.363560
      pz      :     1.530790  p :     3.683102
      px      :     1.122974
      py      :     1.029338
      dz2     :     0.002676  d :     0.020832
      dxz     :     0.003695
      dyz     :     0.002005
      dx2y2   :     0.006824
      dxy     :     0.005633
  7 H s       :     0.967857  s :     0.967857
      pz      :     0.006771  p :     0.024999
      px      :     0.007512
      py      :     0.010715
  8 H s       :     0.970944  s :     0.970944
      pz      :     0.006259  p :     0.024862
      px      :     0.006853
      py      :     0.011751
  9 H s       :     0.934452  s :     0.934452
      pz      :     0.011819  p :     0.023054
      px      :     0.004422
      py      :     0.006814
 10 H s       :     0.932059  s :     0.932059
      pz      :     0.008953  p :     0.023120
      px      :     0.006147
      py      :     0.008020
 11 H s       :     0.927508  s :     0.927508
      pz      :     0.008736  p :     0.023456
      px      :     0.009323
      py      :     0.005397
 12 H s       :     0.929927  s :     0.929927
      pz      :     0.012232  p :     0.023387
      px      :     0.005126
      py      :     0.006028
 13 H s       :     0.844397  s :     0.844397
      pz      :     0.010610  p :     0.042957
      px      :     0.008210
      py      :     0.024136


                     *******************************
                     * LOEWDIN POPULATION ANALYSIS *
                     *******************************

----------------------
LOEWDIN ATOMIC CHARGES
----------------------
   0 C :   -0.138023
   1 C :    0.007024
   2 C :   -0.034434
   3 C :   -0.061455
   4 C :    0.029550
   5 O :   -0.167646
   6 N :    0.046601
   7 H :    0.028230
   8 H :    0.022924
   9 H :    0.043769
  10 H :    0.044048
  11 H :    0.047671
  12 H :    0.047416
  13 H :    0.084325

-------------------------------
LOEWDIN REDUCED ORBITAL CHARGES
-------------------------------
  0 C s       :     2.870699  s :     2.870699
      pz      :     1.105203  p :     3.202502
      px      :     1.058346
      py      :     1.038954
      dz2     :     0.005768  d :     0.064822
      dxz     :     0.010933
      dyz     :     0.002567
      dx2y2   :     0.020832
      dxy     :     0.024721
  1 C s       :     2.847366  s :     2.847366
      pz      :     0.977742  p :     3.000147
      px      :     1.056112
      py      :     0.966293
      dz2     :     0.014633  d :     0.145463
      dxz     :     0.025939
      dyz     :     0.018390
      dx2y2   :     0.031246
      dxy     :     0.055256
  2 C s       :     2.833297  s :     2.833297
      pz      :     1.074397  p :     3.117892
      px      :     1.012005
      py      :     1.031490
      dz2     :     0.013127  d :     0.083245
      dxz     :     0.012177
      dyz     :     0.019745
      dx2y2   :     0.014471
      dxy     :     0.023725
  3 C s       :     2.845863  s :     2.845863
      pz      :     1.073801  p :     3.134804
      px      :     1.027507
      py      :     1.033496
      dz2     :     0.014741  d :     0.080788
      dxz     :     0.018744
      dyz     :     0.009620
      dx2y2   :     0.026628
      dxy     :     0.011055
  4 C s       :     2.839985  s :     2.839985
      pz      :     0.867230  p :     2.859938
      px      :     0.957309
      py      :     1.035400
      dz2     :     0.022651  d :     0.270527
      dxz     :     0.048900
      dyz     :     0.024397
      dx2y2   :     0.117961
      dxy     :     0.056618
  5 O s       :     3.541169  s :     3.541169
      pz      :     1.404633  p :     4.594770
      px      :     1.562704
      py      :     1.627434
      dz2     :     0.004169  d :     0.031707
      dxz     :     0.005355
      dyz     :     0.004148
      dx2y2   :     0.006337
      dxy     :     0.011699
  6 N s       :     3.051687  s :     3.051687
      pz      :     1.483389  p :     3.843855
      px      :     1.204717
      py      :     1.155750
      dz2     :     0.005878  d :     0.057857
      dxz     :     0.008256
      dyz     :     0.004501
      dx2y2   :     0.020837
      dxy     :     0.018386
  7 H s       :     0.899746  s :     0.899746
      pz      :     0.020305  p :     0.072024
      px      :     0.019710
      py      :     0.032008
  8 H s       :     0.905035  s :     0.905035
      pz      :     0.018741  p :     0.072041
      px      :     0.018223
      py      :     0.035077
  9 H s       :     0.887276  s :     0.887276
      pz      :     0.034987  p :     0.068954
      px      :     0.013612
      py      :     0.020355
 10 H s       :     0.886919  s :     0.886919
      pz      :     0.025795  p :     0.069033
      px      :     0.019041
      py      :     0.024197
 11 H s       :     0.882551  s :     0.882551
      pz      :     0.024590  p :     0.069778
      px      :     0.028815
      py      :     0.016373
 12 H s       :     0.882853  s :     0.882853
      pz      :     0.036012  p :     0.069731
      px      :     0.015346
      py      :     0.018373
 13 H s       :     0.791936  s :     0.791936
      pz      :     0.033912  p :     0.123739
      px      :     0.023489
      py      :     0.066337


                      *****************************
                      * MAYER POPULATION ANALYSIS *
                      *****************************

  NA   - Mulliken gross atomic population
  ZA   - Total nuclear charge
  QA   - Mulliken gross atomic charge
  VA   - Mayer's total valence
  BVA  - Mayer's bonded valence
  FA   - Mayer's free valence

  ATOM       NA         ZA         QA         VA         BVA        FA
  0 C      6.0681     6.0000    -0.0681     3.8976     3.8976     0.0000
  1 C      6.0610     6.0000    -0.0610     4.2770     4.2770     0.0000
  2 C      5.9386     6.0000     0.0614     3.9597     3.9597    -0.0000
  3 C      6.0220     6.0000    -0.0220     3.9611     3.9611    -0.0000
  4 C      5.9763     6.0000     0.0237     4.3931     4.3931    -0.0000
  5 O      8.1735     8.0000    -0.1735     2.3554     2.3554    -0.0000
  6 N      7.0675     7.0000    -0.0675     3.2923     3.2923     0.0000
  7 H      0.9929     1.0000     0.0071     0.9868     0.9868     0.0000
  8 H      0.9958     1.0000     0.0042     0.9847     0.9847     0.0000
  9 H      0.9575     1.0000     0.0425     0.9839     0.9839     0.0000
 10 H      0.9552     1.0000     0.0448     0.9840     0.9840    -0.0000
 11 H      0.9510     1.0000     0.0490     0.9936     0.9936    -0.0000
 12 H      0.9533     1.0000     0.0467     0.9936     0.9936    -0.0000
 13 H      0.8874     1.0000     0.1126     1.0183     1.0183    -0.0000

  Mayer bond orders larger than 0.1
B(  0-C ,  1-C ) :   1.9310 B(  0-C ,  7-H ) :   0.9230 B(  0-C ,  8-H ) :   0.9277 
B(  1-C ,  2-C ) :   1.0092 B(  1-C ,  6-N ) :   1.1169 B(  2-C ,  3-C ) :   1.1095 
B(  2-C ,  9-H ) :   0.9119 B(  2-C , 10-H ) :   0.9128 B(  3-C ,  4-C ) :   0.9817 
B(  3-C , 11-H ) :   0.9134 B(  3-C , 12-H ) :   0.9127 B(  4-C ,  5-O ) :   2.1655 
B(  4-C ,  6-N ) :   1.1250 B(  6-N , 13-H ) :   0.9242 


 *********************************** NBO 6.0 ***********************************
             N A T U R A L   A T O M I C   O R B I T A L   A N D
          N A T U R A L   B O N D   O R B I T A L   A N A L Y S I S
 ***************************** Kiya KiyaLu (100703) ****************************
  (c) Copyright 1996-2015 Board of Regents of the University of Wisconsin System
      on behalf of the Theoretical Chemistry Institute.  All rights reserved.

          Cite this program as:

          NBO 6.0.  E. D. Glendening, J. K. Badenhoop, A. E. Reed,
          J. E. Carpenter, J. A. Bohmann, C. M. Morales, C. R. Landis,
          and F. Weinhold (Theoretical Chemistry Institute, University
          of Wisconsin, Madison, WI, 2013); http://nbo6.chem.wisc.edu/

       /NPA    / : Natural Population Analysis
       /NBO    / : Natural Bond Orbital Analysis
       /AONBO  / : Write the AO to NBO transformation to lfn77
       /FILE   / : Set to 4632

 Filename set to 4632

 Job title:  *** NBO job generated by orca_scf

 Warning: MOs are non-orthogonal; program will continue

 Warning: -2366.38282 electrons reside outside the linearly independent MO space


 NATURAL POPULATIONS:  Natural atomic orbital occupancies

  NAO Atom No lang   Type(AO)    Occupancy      Energy
 -------------------------------------------------------
   1    C  1  s      Cor( 1s)     1.99888      -9.75733
   2    C  1  s      Val( 2s)     1.02125      -0.15988
   3    C  1  s      Ryd( 3s)     0.00047       0.54799
   4    C  1  px     Val( 2p)     1.12492      -0.04102
   5    C  1  px     Ryd( 3p)     0.00201       0.48481
   6    C  1  py     Val( 2p)     1.20969      -0.03653
   7    C  1  py     Ryd( 3p)     0.00435       0.86334
   8    C  1  pz     Val( 2p)     1.13343      -0.10215
   9    C  1  pz     Ryd( 3p)     0.00242       0.49570
  10    C  1  dxy    Ryd( 3d)     0.00042       2.38858
  11    C  1  dxz    Ryd( 3d)     0.00062       2.00826
  12    C  1  dyz    Ryd( 3d)     0.00007       1.87398
  13    C  1  dx2y2  Ryd( 3d)     0.00070       2.30696
  14    C  1  dz2    Ryd( 3d)     0.00054       2.07245

  15    C  2  s      Cor( 1s)     1.99889      -9.81778
  16    C  2  s      Val( 2s)     0.82928      -0.11986
  17    C  2  s      Ryd( 3s)     0.00205       0.46466
  18    C  2  px     Val( 2p)     1.05904      -0.06953
  19    C  2  px     Ryd( 3p)     0.00548       0.78936
  20    C  2  py     Val( 2p)     0.92211      -0.05072
  21    C  2  py     Ryd( 3p)     0.00413       0.80905
  22    C  2  pz     Val( 2p)     1.00809      -0.11335
  23    C  2  pz     Ryd( 3p)     0.00192       0.57657
  24    C  2  dxy    Ryd( 3d)     0.00139       2.33482
  25    C  2  dxz    Ryd( 3d)     0.00119       2.01831
  26    C  2  dyz    Ryd( 3d)     0.00084       1.89698
  27    C  2  dx2y2  Ryd( 3d)     0.00091       2.27549
  28    C  2  dz2    Ryd( 3d)     0.00082       2.03165

  29    C  3  s      Cor( 1s)     1.99906      -9.79403
  30    C  3  s      Val( 2s)     1.01925      -0.21137
  31    C  3  s      Ryd( 3s)     0.00084       0.93079
  32    C  3  px     Val( 2p)     1.06734      -0.09049
  33    C  3  px     Ryd( 3p)     0.00228       0.55416
  34    C  3  py     Val( 2p)     1.14521      -0.08408
  35    C  3  py     Ryd( 3p)     0.00247       0.49633
  36    C  3  pz     Val( 2p)     1.23348      -0.08528
  37    C  3  pz     Ryd( 3p)     0.00264       0.69782
  38    C  3  dxy    Ryd( 3d)     0.00071       2.17485
  39    C  3  dxz    Ryd( 3d)     0.00051       2.08010
  40    C  3  dyz    Ryd( 3d)     0.00061       2.29799
  41    C  3  dx2y2  Ryd( 3d)     0.00046       2.08663
  42    C  3  dz2    Ryd( 3d)     0.00054       2.18497

  43    C  4  s      Cor( 1s)     1.99907      -9.79175
  44    C  4  s      Val( 2s)     1.04515      -0.21816
  45    C  4  s      Ryd( 3s)     0.00161       0.91489
  46    C  4  px     Val( 2p)     1.13063      -0.08215
  47    C  4  px     Ryd( 3p)     0.00342       0.54398
  48    C  4  py     Val( 2p)     1.11312      -0.09839
  49    C  4  py     Ryd( 3p)     0.00250       0.52751
  50    C  4  pz     Val( 2p)     1.23411      -0.08490
  51    C  4  pz     Ryd( 3p)     0.00223       0.69470
  52    C  4  dxy    Ryd( 3d)     0.00042       2.03091
  53    C  4  dxz    Ryd( 3d)     0.00065       2.27134
  54    C  4  dyz    Ryd( 3d)     0.00032       2.06374
  55    C  4  dx2y2  Ryd( 3d)     0.00077       2.20872
  56    C  4  dz2    Ryd( 3d)     0.00056       2.20147

  57    C  5  s      Cor( 1s)     1.99922      -9.87726
  58    C  5  s      Val( 2s)     0.74882      -0.11064
  59    C  5  s      Ryd( 3s)     0.00521       0.49320
  60    C  5  px     Val( 2p)     0.77728       0.00012
  61    C  5  px     Ryd( 3p)     0.01287       0.55394
  62    C  5  py     Val( 2p)     0.92182      -0.03777
  63    C  5  py     Ryd( 3p)     0.01458       0.60387
  64    C  5  pz     Val( 2p)     0.82628      -0.11658
  65    C  5  pz     Ryd( 3p)     0.00346       0.49797
  66    C  5  dxy    Ryd( 3d)     0.00186       2.30682
  67    C  5  dxz    Ryd( 3d)     0.00241       2.01328
  68    C  5  dyz    Ryd( 3d)     0.00141       1.93548
  69    C  5  dx2y2  Ryd( 3d)     0.00426       2.34279
  70    C  5  dz2    Ryd( 3d)     0.00126       2.03734

  71    O  6  s      Cor( 1s)     1.99972     -18.47961
  72    O  6  s      Val( 2s)     1.68218      -0.77598
  73    O  6  s      Ryd( 3s)     0.00129       1.51705
  74    O  6  px     Val( 2p)     1.67980      -0.23384
  75    O  6  px     Ryd( 3p)     0.00131       1.06649
  76    O  6  py     Val( 2p)     1.73920      -0.22328
  77    O  6  py     Ryd( 3p)     0.00165       1.12573
  78    O  6  pz     Val( 2p)     1.45827      -0.21428
  79    O  6  pz     Ryd( 3p)     0.00080       1.03202
  80    O  6  dxy    Ryd( 3d)     0.00215       3.03626
  81    O  6  dxz    Ryd( 3d)     0.00138       2.73213
  82    O  6  dyz    Ryd( 3d)     0.00108       2.69314
  83    O  6  dx2y2  Ryd( 3d)     0.00207       2.80329
  84    O  6  dz2    Ryd( 3d)     0.00094       2.71314

  85    N  7  s      Cor( 1s)     1.99901     -13.88225
  86    N  7  s      Val( 2s)     1.24852      -0.47736
  87    N  7  s      Ryd( 3s)     0.00140       1.06459
  88    N  7  px     Val( 2p)     1.36548      -0.24500
  89    N  7  px     Ryd( 3p)     0.00137       1.09847
  90    N  7  py     Val( 2p)     1.40267      -0.24242
  91    N  7  py     Ryd( 3p)     0.00285       1.23346
  92    N  7  pz     Val( 2p)     1.59057      -0.23563
  93    N  7  pz     Ryd( 3p)     0.00183       0.81181
  94    N  7  dxy    Ryd( 3d)     0.00073       2.67312
  95    N  7  dxz    Ryd( 3d)     0.00053       2.29939
  96    N  7  dyz    Ryd( 3d)     0.00033       2.25401
  97    N  7  dx2y2  Ryd( 3d)     0.00078       2.70248
  98    N  7  dz2    Ryd( 3d)     0.00063       2.43885

  99    H  8  s      Val( 1s)     0.77918       0.06534
 100    H  8  s      Ryd( 2s)     0.00131       0.32017
 101    H  8  px     Ryd( 2p)     0.00033       1.92634
 102    H  8  py     Ryd( 2p)     0.00058       2.15712
 103    H  8  pz     Ryd( 2p)     0.00033       1.64266

 104    H  9  s      Val( 1s)     0.78569       0.05970
 105    H  9  s      Ryd( 2s)     0.00139       0.31892
 106    H  9  px     Ryd( 2p)     0.00029       1.87867
 107    H  9  py     Ryd( 2p)     0.00067       2.22498
 108    H  9  pz     Ryd( 2p)     0.00028       1.60500

 109    H 10  s      Val( 1s)     0.74701       0.06423
 110    H 10  s      Ryd( 2s)     0.00190       0.31624
 111    H 10  px     Ryd( 2p)     0.00012       1.71288
 112    H 10  py     Ryd( 2p)     0.00027       1.88585
 113    H 10  pz     Ryd( 2p)     0.00072       2.15292

 114    H 11  s      Val( 1s)     0.74693       0.06451
 115    H 11  s      Ryd( 2s)     0.00190       0.31717
 116    H 11  px     Ryd( 2p)     0.00026       1.81147
 117    H 11  py     Ryd( 2p)     0.00037       1.95885
 118    H 11  pz     Ryd( 2p)     0.00045       2.00293

 119    H 12  s      Val( 1s)     0.74213       0.06546
 120    H 12  s      Ryd( 2s)     0.00219       0.31695
 121    H 12  px     Ryd( 2p)     0.00048       2.04174
 122    H 12  py     Ryd( 2p)     0.00018       1.73759
 123    H 12  pz     Ryd( 2p)     0.00042       1.99442

 124    H 13  s      Val( 1s)     0.74222       0.06524
 125    H 13  s      Ryd( 2s)     0.00220       0.31553
 126    H 13  px     Ryd( 2p)     0.00014       1.80936
 127    H 13  py     Ryd( 2p)     0.00023       1.77561
 128    H 13  pz     Ryd( 2p)     0.00074       2.17259

 129    H 14  s      Val( 1s)     0.57743       0.07030
 130    H 14  s      Ryd( 2s)     0.00456       0.36257
 131    H 14  px     Ryd( 2p)     0.00022       1.84851
 132    H 14  py     Ryd( 2p)     0.00135       2.31790
 133    H 14  pz     Ryd( 2p)     0.00035       1.62245

   1 low occupancy (<1.9990e) core orbital  found on  C  1
   1 low occupancy (<1.9990e) core orbital  found on  C  2


 Summary of Natural Population Analysis:

                                     Natural Population
             Natural    ---------------------------------------------
  Atom No    Charge        Core      Valence    Rydberg      Total
 --------------------------------------------------------------------
    C  1   -0.49977      1.99888     4.48929    0.01159     6.49977
    C  2    0.16386      1.99889     3.81853    0.01872     5.83614
    C  3   -0.47540      1.99906     4.46528    0.01106     6.47540
    C  4   -0.53456      1.99907     4.52301    0.01249     6.53456
    C  5    0.67926      1.99922     3.27421    0.04731     5.32074
    O  6   -0.57183      1.99972     6.55945    0.01267     8.57183
    N  7   -0.61671      1.99901     5.60725    0.01045     7.61671
    H  8    0.21826      0.00000     0.77918    0.00256     0.78174
    H  9    0.21168      0.00000     0.78569    0.00263     0.78832
    H 10    0.24998      0.00000     0.74701    0.00301     0.75002
    H 11    0.25009      0.00000     0.74693    0.00298     0.74991
    H 12    0.25459      0.00000     0.74213    0.00328     0.74541
    H 13    0.25447      0.00000     0.74222    0.00331     0.74553
    H 14    0.41609      0.00000     0.57743    0.00648     0.58391
 ====================================================================
 * Total *  0.00000     13.99386    37.85761    0.14853    52.00000

                                 Natural Population
 ---------------------------------------------------------
   Core                      13.99386 ( 99.9562% of   14)
   Valence                   37.85761 ( 99.6253% of   38)
   Natural Minimal Basis     51.85147 ( 99.7144% of   52)
   Natural Rydberg Basis      0.14853 (  0.2856% of   52)
 ---------------------------------------------------------

    Atom No         Natural Electron Configuration
 ----------------------------------------------------------------------------
      C  1      [core]2s( 1.02)2p( 3.47)3p( 0.01)
      C  2      [core]2s( 0.83)2p( 2.99)3p( 0.01)3d( 0.01)
      C  3      [core]2s( 1.02)2p( 3.45)3p( 0.01)
      C  4      [core]2s( 1.05)2p( 3.48)3p( 0.01)
      C  5      [core]2s( 0.75)2p( 2.53)3s( 0.01)3p( 0.03)3d( 0.01)
      O  6      [core]2s( 1.68)2p( 4.88)3d( 0.01)
      N  7      [core]2s( 1.25)2p( 4.36)3p( 0.01)
      H  8            1s( 0.78)
      H  9            1s( 0.79)
      H 10            1s( 0.75)
      H 11            1s( 0.75)
      H 12            1s( 0.74)
      H 13            1s( 0.74)
      H 14            1s( 0.58)


 NATURAL BOND ORBITAL ANALYSIS:

                            Occupancies       Lewis Structure    Low   High
         Max    Occ     -------------------  -----------------   occ   occ
  Cycle  Ctr   Thresh    Lewis   non-Lewis     CR  BD  nC  LP    (L)   (NL)
 ============================================================================
    1     2     1.90    51.05720   0.94280      7  16   0   3     2      2
    2     2     1.86    50.75781   1.24219      7  16   0   3     2      2
    3     2     1.85    51.05720   0.94280      7  16   0   3     2      2
    4     2     1.83    51.05953   0.94047      7  16   0   3     1      2
    5     2     1.80    51.05953   0.94047      7  16   0   3     1      2
    6     2     1.74    51.05953   0.94047      7  16   0   3     1      2
    7     2     1.61    51.05952   0.94048      7  16   0   3     0      2
    8     2     1.83    51.05953   0.94047      7  16   0   3     1      2
 ----------------------------------------------------------------------------

 Strongly delocalized structure accepted

 -------------------------------------------------------
   Core                     13.99386 ( 99.956% of  14)
   Valence Lewis            37.06566 ( 97.541% of  38)
  ==================      =============================
   Total Lewis              51.05953 ( 98.191% of  52)
  -----------------------------------------------------
   Valence non-Lewis         0.83387 (  1.604% of  52)
   Rydberg non-Lewis         0.10661 (  0.205% of  52)
  ==================      =============================
   Total non-Lewis           0.94047 (  1.809% of  52)
 -------------------------------------------------------


     (Occupancy)   Bond orbital / Coefficients / Hybrids
 ------------------ Lewis ------------------------------------------------------
   1. (1.99888) CR ( 1) C  1            s(100.00%)
                                         1.0000  0.0000  0.0000  0.0000  0.0000
                                         0.0000  0.0000  0.0000  0.0000  0.0000
                                         0.0000  0.0000  0.0000  0.0000
   2. (1.99889) CR ( 1) C  2            s(100.00%)
                                         1.0000  0.0000  0.0000  0.0000  0.0000
                                         0.0000  0.0000  0.0000  0.0000  0.0000
                                         0.0000  0.0000  0.0000  0.0000
   3. (1.99906) CR ( 1) C  3            s(100.00%)
                                         1.0000  0.0000  0.0000  0.0000  0.0000
                                         0.0000  0.0000  0.0000  0.0000  0.0000
                                         0.0000  0.0000  0.0000  0.0000
   4. (1.99907) CR ( 1) C  4            s(100.00%)
                                         1.0000  0.0000  0.0000  0.0000  0.0000
                                         0.0000  0.0000  0.0000  0.0000  0.0000
                                         0.0000  0.0000  0.0000  0.0000
   5. (1.99922) CR ( 1) C  5            s(100.00%)
                                         1.0000  0.0000  0.0000  0.0000  0.0000
                                         0.0000  0.0000  0.0000  0.0000  0.0000
                                         0.0000  0.0000  0.0000  0.0000
   6. (1.99972) CR ( 1) O  6            s(100.00%)
                                         1.0000  0.0000  0.0000  0.0000  0.0000
                                         0.0000  0.0000  0.0000  0.0000  0.0000
                                         0.0000  0.0000  0.0000  0.0000
   7. (1.99901) CR ( 1) N  7            s(100.00%)
                                         1.0000  0.0000  0.0000  0.0000  0.0000
                                         0.0000  0.0000  0.0000  0.0000  0.0000
                                         0.0000  0.0000  0.0000  0.0000
   8. (1.97521) LP ( 1) O  6            s( 55.64%)p 0.80( 44.33%)d 0.00(  0.03%)
                                         0.0000  0.7458 -0.0131  0.4868 -0.0036
                                        -0.4145  0.0024 -0.1856  0.0016  0.0127
                                         0.0071 -0.0052 -0.0023  0.0084
   9. (1.83611) LP ( 2) O  6            s(  0.00%)p 1.00( 99.88%)d 0.00(  0.12%)
                                         0.0000  0.0059 -0.0011 -0.6188  0.0084
                                        -0.7740  0.0105  0.1291 -0.0017  0.0062
                                        -0.0092 -0.0046  0.0323  0.0021
  10. (1.61880) LP ( 1) N  7            s(  0.00%)p 1.00( 99.99%)d 0.00(  0.01%)
                                         0.0000  0.0006 -0.0004  0.2980  0.0001
                                        -0.0783  0.0006  0.9512  0.0110  0.0025
                                         0.0055  0.0097  0.0026 -0.0018
  11. (1.98268) BD ( 1) C  1- C  2
               ( 47.68%)   0.6905* C  1 s( 40.52%)p 1.47( 59.41%)d 0.00(  0.07%)
                                         0.0000  0.6364  0.0103  0.7331  0.0176
                                         0.0580 -0.0006 -0.2302 -0.0033  0.0022
                                        -0.0143  0.0001  0.0182 -0.0135
               ( 52.32%)   0.7233* C  2 s( 41.65%)p 1.40( 58.31%)d 0.00(  0.04%)
                                         0.0000  0.6453  0.0127 -0.7287 -0.0113
                                        -0.0757 -0.0104  0.2147  0.0036  0.0054
                                        -0.0092 -0.0010  0.0118 -0.0099
  12. (1.96809) BD ( 2) C  1- C  2
               ( 53.52%)   0.7316* C  1 s(  0.00%)p 1.00( 99.94%)d 0.00(  0.06%)
                                         0.0000  0.0042  0.0051  0.3007 -0.0036
                                        -0.0783  0.0020  0.9499 -0.0248 -0.0012
                                         0.0195  0.0023  0.0072 -0.0115
               ( 46.48%)   0.6818* C  2 s(  0.00%)p 1.00( 99.94%)d 0.00(  0.05%)
                                         0.0000  0.0041 -0.0006  0.2924  0.0012
                                        -0.0791  0.0011  0.9525 -0.0211  0.0003
                                        -0.0190 -0.0055 -0.0067  0.0105
  13. (1.97705) BD ( 1) C  1- H  8
               ( 60.77%)   0.7795* C  1 s( 29.71%)p 2.36( 70.26%)d 0.00(  0.03%)
                                         0.0000  0.5450 -0.0034 -0.4629 -0.0200
                                         0.6694 -0.0041  0.1994  0.0063 -0.0111
                                        -0.0040  0.0057 -0.0090 -0.0098
               ( 39.23%)   0.6264* H  8 s( 99.91%)p 0.00(  0.09%)
                                         0.9995 -0.0008  0.0169 -0.0239 -0.0071
  14. (1.97886) BD ( 1) C  1- H  9
               ( 60.51%)   0.7779* C  1 s( 29.72%)p 2.36( 70.25%)d 0.00(  0.04%)
                                         0.0000  0.5451 -0.0050 -0.3948 -0.0229
                                        -0.7363  0.0014  0.0620  0.0069  0.0100
                                        -0.0016 -0.0006 -0.0115 -0.0108
               ( 39.49%)   0.6284* H  9 s( 99.91%)p 0.00(  0.09%)
                                         0.9995 -0.0008  0.0153  0.0260 -0.0026
  15. (1.96639) BD ( 1) C  2- C  3
               ( 50.12%)   0.7079* C  2 s( 31.42%)p 2.18( 68.54%)d 0.00(  0.04%)
                                         0.0000  0.5603 -0.0166  0.4026 -0.0333
                                         0.7195 -0.0048 -0.0661  0.0089  0.0151
                                        -0.0045 -0.0028 -0.0022 -0.0112
               ( 49.88%)   0.7063* C  3 s( 27.14%)p 2.68( 72.82%)d 0.00(  0.04%)
                                         0.0000  0.5209 -0.0040 -0.4860 -0.0124
                                        -0.6949  0.0092  0.0935  0.0041  0.0144
                                        -0.0014 -0.0020 -0.0107 -0.0109
  16. (1.98126) BD ( 1) C  2- N  7
               ( 37.47%)   0.6121* C  2 s( 26.71%)p 2.74( 73.17%)d 0.00(  0.13%)
                                         0.0000  0.5168  0.0046  0.4696 -0.0077
                                        -0.6841 -0.0422 -0.2032 -0.0017 -0.0256
                                        -0.0104  0.0115 -0.0075 -0.0173
               ( 62.53%)   0.7908* N  7 s( 37.25%)p 1.68( 62.71%)d 0.00(  0.04%)
                                         0.0000  0.6103  0.0041 -0.5265  0.0124
                                         0.5526  0.0164  0.2101 -0.0019 -0.0127
                                        -0.0069  0.0064 -0.0054 -0.0124
  17. (1.97754) BD ( 1) C  3- C  4
               ( 50.27%)   0.7090* C  3 s( 27.40%)p 2.65( 72.57%)d 0.00(  0.04%)
                                         0.0000  0.5234  0.0041  0.7868  0.0086
                                        -0.1933  0.0256 -0.2617 -0.0005 -0.0115
                                        -0.0093  0.0043  0.0086 -0.0085
               ( 49.73%)   0.7052* C  4 s( 28.30%)p 2.53( 71.66%)d 0.00(  0.04%)
                                         0.0000  0.5319  0.0079 -0.7431  0.0032
                                         0.3120  0.0231  0.2578  0.0006 -0.0042
                                        -0.0102  0.0017  0.0136 -0.0085
  18. (1.96978) BD ( 1) C  3- H 10
               ( 62.48%)   0.7904* C  3 s( 22.69%)p 3.41( 77.28%)d 0.00(  0.03%)
                                         0.0000  0.4763  0.0004  0.0431 -0.0034
                                         0.4299  0.0102  0.7655 -0.0090  0.0002
                                         0.0006  0.0106 -0.0027  0.0134
               ( 37.52%)   0.6126* H 10 s( 99.89%)p 0.00(  0.11%)
                                         0.9995 -0.0024 -0.0011 -0.0164 -0.0285
  19. (1.96970) BD ( 1) C  3- H 11
               ( 62.48%)   0.7904* C  3 s( 22.70%)p 3.40( 77.27%)d 0.00(  0.03%)
                                         0.0000  0.4765  0.0003 -0.3767  0.0030
                                         0.5425  0.0079 -0.5799  0.0108 -0.0077
                                         0.0104 -0.0112 -0.0009  0.0041
               ( 37.52%)   0.6126* H 11 s( 99.90%)p 0.00(  0.10%)
                                         0.9995 -0.0024  0.0140 -0.0201  0.0208
  20. (1.97741) BD ( 1) C  4- C  5
               ( 52.22%)   0.7227* C  4 s( 25.63%)p 2.90( 74.32%)d 0.00(  0.04%)
                                         0.0000  0.5062 -0.0095 -0.0207  0.0229
                                        -0.8591  0.0037 -0.0642 -0.0068  0.0045
                                         0.0002  0.0016 -0.0177 -0.0105
               ( 47.78%)   0.6912* C  5 s( 36.02%)p 1.77( 63.93%)d 0.00(  0.04%)
                                         0.0000  0.5997 -0.0253  0.1229  0.0369
                                         0.7885 -0.0165  0.0267 -0.0123 -0.0021
                                         0.0004  0.0035 -0.0184 -0.0094
  21. (1.96459) BD ( 1) C  4- H 12
               ( 62.59%)   0.7912* C  4 s( 23.00%)p 3.35( 76.97%)d 0.00(  0.03%)
                                         0.0000  0.4796  0.0031  0.6334  0.0061
                                         0.2253  0.0056  0.5634 -0.0115  0.0027
                                         0.0153  0.0016  0.0074  0.0030
               ( 37.41%)   0.6116* H 12 s( 99.90%)p 0.00(  0.10%)
                                         0.9995 -0.0019 -0.0242 -0.0081 -0.0198
  22. (1.96461) BD ( 1) C  4- H 13
               ( 62.59%)   0.7911* C  4 s( 22.99%)p 3.35( 76.98%)d 0.00(  0.03%)
                                         0.0000  0.4795  0.0036  0.2131  0.0119
                                         0.3358  0.0045 -0.7819  0.0067  0.0023
                                        -0.0061 -0.0063 -0.0006  0.0146
               ( 37.41%)   0.6117* H 13 s( 99.89%)p 0.00(  0.11%)
                                         0.9995 -0.0020 -0.0092 -0.0123  0.0291
  23. (1.99451) BD ( 1) C  5- O  6
               ( 34.23%)   0.5851* C  5 s( 33.49%)p 1.98( 66.34%)d 0.01(  0.17%)
                                         0.0000  0.5774  0.0393  0.5811  0.0379
                                        -0.5242 -0.0411 -0.2180 -0.0164 -0.0330
                                        -0.0133  0.0128  0.0008 -0.0167
               ( 65.77%)   0.8110* O  6 s( 44.37%)p 1.25( 55.45%)d 0.00(  0.18%)
                                         0.0000  0.6657  0.0226 -0.5369 -0.0153
                                         0.4697  0.0132  0.2125  0.0054 -0.0347
                                        -0.0146  0.0131  0.0054 -0.0150
  24. (1.98944) BD ( 2) C  5- O  6
               ( 32.18%)   0.5673* C  5 s(  0.00%)p 1.00( 99.72%)d 0.00(  0.28%)
                                         0.0000  0.0035  0.0016 -0.2923  0.0090
                                         0.0752 -0.0024 -0.9511  0.0368  0.0134
                                        -0.0305  0.0332 -0.0080  0.0235
               ( 67.82%)   0.8235* O  6 s(  0.00%)p 1.00( 99.83%)d 0.00(  0.17%)
                                         0.0000  0.0042  0.0013 -0.2995 -0.0038
                                         0.0811  0.0014 -0.9497 -0.0124 -0.0103
                                         0.0247 -0.0232  0.0068 -0.0188
  25. (1.98828) BD ( 1) C  5- N  7
               ( 35.78%)   0.5982* C  5 s( 30.07%)p 2.32( 69.79%)d 0.00(  0.14%)
                                         0.0000  0.5484  0.0007 -0.7468 -0.0149
                                        -0.3075 -0.0496  0.2072  0.0004  0.0173
                                        -0.0160 -0.0049  0.0250 -0.0154
               ( 64.22%)   0.8014* N  7 s( 35.74%)p 1.80( 64.22%)d 0.00(  0.04%)
                                         0.0000  0.5978  0.0015  0.7551 -0.0057
                                         0.1440  0.0241 -0.2251  0.0034  0.0091
                                        -0.0099 -0.0019  0.0112 -0.0117
  26. (1.98535) BD ( 1) N  7- H 14
               ( 71.67%)   0.8466* N  7 s( 26.86%)p 2.72( 73.11%)d 0.00(  0.03%)
                                         0.0000  0.5183  0.0017 -0.2516  0.0019
                                        -0.8170  0.0119  0.0112  0.0005  0.0072
                                        -0.0012  0.0002 -0.0119 -0.0098
               ( 28.33%)   0.5323* H 14 s( 99.77%)p 0.00(  0.23%)
                                         0.9988 -0.0089  0.0117  0.0465  0.0002
 ---------------- non-Lewis ----------------------------------------------------
  27. (0.01595) BD*( 1) C  1- C  2
               ( 52.32%)   0.7233* C  1 s( 40.52%)p 1.47( 59.41%)d 0.00(  0.07%)
                                         0.0000  0.6364  0.0103  0.7331  0.0176
                                         0.0580 -0.0006 -0.2302 -0.0033  0.0022
                                        -0.0143  0.0001  0.0182 -0.0135
               ( 47.68%)  -0.6905* C  2 s( 41.65%)p 1.40( 58.31%)d 0.00(  0.04%)
                                         0.0000  0.6453  0.0127 -0.7287 -0.0113
                                        -0.0757 -0.0104  0.2147  0.0036  0.0054
                                        -0.0092 -0.0010  0.0118 -0.0099
  28. (0.17766) BD*( 2) C  1- C  2
               ( 46.48%)   0.6818* C  1 s(  0.00%)p 1.00( 99.94%)d 0.00(  0.06%)
                                         0.0000  0.0042  0.0051  0.3007 -0.0036
                                        -0.0783  0.0020  0.9499 -0.0248 -0.0012
                                         0.0195  0.0023  0.0072 -0.0115
               ( 53.52%)  -0.7316* C  2 s(  0.00%)p 1.00( 99.94%)d 0.00(  0.05%)
                                         0.0000  0.0041 -0.0006  0.2924  0.0012
                                        -0.0791  0.0011  0.9525 -0.0211  0.0003
                                        -0.0190 -0.0055 -0.0067  0.0105
  29. (0.00703) BD*( 1) C  1- H  8
               ( 39.23%)   0.6264* C  1 s( 29.71%)p 2.36( 70.26%)d 0.00(  0.03%)
                                         0.0000 -0.5450  0.0034  0.4629  0.0200
                                        -0.6694  0.0041 -0.1994 -0.0063  0.0111
                                         0.0040 -0.0057  0.0090  0.0098
               ( 60.77%)  -0.7795* H  8 s( 99.91%)p 0.00(  0.09%)
                                        -0.9995  0.0008 -0.0169  0.0239  0.0071
  30. (0.00812) BD*( 1) C  1- H  9
               ( 39.49%)   0.6284* C  1 s( 29.72%)p 2.36( 70.25%)d 0.00(  0.04%)
                                         0.0000 -0.5451  0.0050  0.3948  0.0229
                                         0.7363 -0.0014 -0.0620 -0.0069 -0.0100
                                         0.0016  0.0006  0.0115  0.0108
               ( 60.51%)  -0.7779* H  9 s( 99.91%)p 0.00(  0.09%)
                                        -0.9995  0.0008 -0.0153 -0.0260  0.0026
  31. (0.03405) BD*( 1) C  2- C  3
               ( 49.88%)   0.7063* C  2 s( 31.42%)p 2.18( 68.54%)d 0.00(  0.04%)
                                         0.0000  0.5603 -0.0166  0.4026 -0.0333
                                         0.7195 -0.0048 -0.0661  0.0089  0.0151
                                        -0.0045 -0.0028 -0.0022 -0.0112
               ( 50.12%)  -0.7079* C  3 s( 27.14%)p 2.68( 72.82%)d 0.00(  0.04%)
                                         0.0000  0.5209 -0.0040 -0.4860 -0.0124
                                        -0.6949  0.0092  0.0935  0.0041  0.0144
                                        -0.0014 -0.0020 -0.0107 -0.0109
  32. (0.03765) BD*( 1) C  2- N  7
               ( 62.53%)   0.7908* C  2 s( 26.71%)p 2.74( 73.17%)d 0.00(  0.13%)
                                         0.0000  0.5168  0.0046  0.4696 -0.0077
                                        -0.6841 -0.0422 -0.2032 -0.0017 -0.0256
                                        -0.0104  0.0115 -0.0075 -0.0173
               ( 37.47%)  -0.6121* N  7 s( 37.25%)p 1.68( 62.71%)d 0.00(  0.04%)
                                         0.0000  0.6103  0.0041 -0.5265  0.0124
                                         0.5526  0.0164  0.2101 -0.0019 -0.0127
                                        -0.0069  0.0064 -0.0054 -0.0124
  33. (0.00901) BD*( 1) C  3- C  4
               ( 49.73%)   0.7052* C  3 s( 27.40%)p 2.65( 72.57%)d 0.00(  0.04%)
                                         0.0000 -0.5234 -0.0041 -0.7868 -0.0086
                                         0.1933 -0.0256  0.2617  0.0005  0.0115
                                         0.0093 -0.0043 -0.0086  0.0085
               ( 50.27%)  -0.7090* C  4 s( 28.30%)p 2.53( 71.66%)d 0.00(  0.04%)
                                         0.0000 -0.5319 -0.0079  0.7431 -0.0032
                                        -0.3120 -0.0231 -0.2578 -0.0006  0.0042
                                         0.0102 -0.0017 -0.0136  0.0085
  34. (0.01392) BD*( 1) C  3- H 10
               ( 37.52%)   0.6126* C  3 s( 22.69%)p 3.41( 77.28%)d 0.00(  0.03%)
                                         0.0000 -0.4763 -0.0004 -0.0431  0.0034
                                        -0.4299 -0.0102 -0.7655  0.0090 -0.0002
                                        -0.0006 -0.0106  0.0027 -0.0134
               ( 62.48%)  -0.7904* H 10 s( 99.89%)p 0.00(  0.11%)
                                        -0.9995  0.0024  0.0011  0.0164  0.0285
  35. (0.01384) BD*( 1) C  3- H 11
               ( 37.52%)   0.6126* C  3 s( 22.70%)p 3.40( 77.27%)d 0.00(  0.03%)
                                         0.0000 -0.4765 -0.0003  0.3767 -0.0030
                                        -0.5425 -0.0079  0.5799 -0.0108  0.0077
                                        -0.0104  0.0112  0.0009 -0.0041
               ( 62.48%)  -0.7904* H 11 s( 99.90%)p 0.00(  0.10%)
                                        -0.9995  0.0024 -0.0140  0.0201 -0.0208
  36. (0.07756) BD*( 1) C  4- C  5
               ( 47.78%)   0.6912* C  4 s( 25.63%)p 2.90( 74.32%)d 0.00(  0.04%)
                                         0.0000 -0.5062  0.0095  0.0207 -0.0229
                                         0.8591 -0.0037  0.0642  0.0068 -0.0045
                                        -0.0002 -0.0016  0.0177  0.0105
               ( 52.22%)  -0.7227* C  5 s( 36.02%)p 1.77( 63.93%)d 0.00(  0.04%)
                                         0.0000 -0.5997  0.0253 -0.1229 -0.0369
                                        -0.7885  0.0165 -0.0267  0.0123  0.0021
                                        -0.0004 -0.0035  0.0184  0.0094
  37. (0.01278) BD*( 1) C  4- H 12
               ( 37.41%)   0.6116* C  4 s( 23.00%)p 3.35( 76.97%)d 0.00(  0.03%)
                                         0.0000 -0.4796 -0.0031 -0.6334 -0.0061
                                        -0.2253 -0.0056 -0.5634  0.0115 -0.0027
                                        -0.0153 -0.0016 -0.0074 -0.0030
               ( 62.59%)  -0.7912* H 12 s( 99.90%)p 0.00(  0.10%)
                                        -0.9995  0.0019  0.0242  0.0081  0.0198
  38. (0.01283) BD*( 1) C  4- H 13
               ( 37.41%)   0.6117* C  4 s( 22.99%)p 3.35( 76.98%)d 0.00(  0.03%)
                                         0.0000 -0.4795 -0.0036 -0.2131 -0.0119
                                        -0.3358 -0.0045  0.7819 -0.0067 -0.0023
                                         0.0061  0.0063  0.0006 -0.0146
               ( 62.59%)  -0.7911* H 13 s( 99.89%)p 0.00(  0.11%)
                                        -0.9995  0.0020  0.0092  0.0123 -0.0291
  39. (0.01386) BD*( 1) C  5- O  6
               ( 65.77%)   0.8110* C  5 s( 33.49%)p 1.98( 66.34%)d 0.01(  0.17%)
                                         0.0000  0.5774  0.0393  0.5811  0.0379
                                        -0.5242 -0.0411 -0.2180 -0.0164 -0.0330
                                        -0.0133  0.0128  0.0008 -0.0167
               ( 34.23%)  -0.5851* O  6 s( 44.37%)p 1.25( 55.45%)d 0.00(  0.18%)
                                         0.0000  0.6657  0.0226 -0.5369 -0.0153
                                         0.4697  0.0132  0.2125  0.0054 -0.0347
                                        -0.0146  0.0131  0.0054 -0.0150
  40. (0.28535) BD*( 2) C  5- O  6
               ( 67.82%)   0.8235* C  5 s(  0.00%)p 1.00( 99.72%)d 0.00(  0.28%)
                                         0.0000  0.0035  0.0016 -0.2923  0.0090
                                         0.0752 -0.0024 -0.9511  0.0368  0.0134
                                        -0.0305  0.0332 -0.0080  0.0235
               ( 32.18%)  -0.5673* O  6 s(  0.00%)p 1.00( 99.83%)d 0.00(  0.17%)
                                         0.0000  0.0042  0.0013 -0.2995 -0.0038
                                         0.0811  0.0014 -0.9497 -0.0124 -0.0103
                                         0.0247 -0.0232  0.0068 -0.0188
  41. (0.09165) BD*( 1) C  5- N  7
               ( 64.22%)   0.8014* C  5 s( 30.07%)p 2.32( 69.79%)d 0.00(  0.14%)
                                         0.0000  0.5484  0.0007 -0.7468 -0.0149
                                        -0.3075 -0.0496  0.2072  0.0004  0.0173
                                        -0.0160 -0.0049  0.0250 -0.0154
               ( 35.78%)  -0.5982* N  7 s( 35.74%)p 1.80( 64.22%)d 0.00(  0.04%)
                                         0.0000  0.5978  0.0015  0.7551 -0.0057
                                         0.1440  0.0241 -0.2251  0.0034  0.0091
                                        -0.0099 -0.0019  0.0112 -0.0117
  42. (0.02259) BD*( 1) N  7- H 14
               ( 28.33%)   0.5323* N  7 s( 26.86%)p 2.72( 73.11%)d 0.00(  0.03%)
                                         0.0000 -0.5183 -0.0017  0.2516 -0.0019
                                         0.8170 -0.0119 -0.0112 -0.0005 -0.0072
                                         0.0012 -0.0002  0.0119  0.0098
               ( 71.67%)  -0.8466* H 14 s( 99.77%)p 0.00(  0.23%)
                                        -0.9988  0.0089 -0.0117 -0.0465 -0.0002
  43. (0.00459) RY ( 1) C  1            s(  0.03%)p99.99( 96.55%)d99.99(  3.42%)
                                         0.0000 -0.0002  0.0159 -0.0031  0.0933
                                        -0.0071 -0.9727  0.0000 -0.1027 -0.1749
                                        -0.0161  0.0530  0.0205  0.0133
  44. (0.00130) RY ( 2) C  1            s(  1.35%)p70.24( 95.13%)d 2.60(  3.52%)
                                         0.0000  0.0002  0.1164 -0.0014  0.4141
                                        -0.0030 -0.0501  0.0199  0.8814 -0.0365
                                         0.1423 -0.0451  0.0457 -0.0973
  45. (0.00062) RY ( 3) C  1            s( 41.15%)p 1.42( 58.42%)d 0.01(  0.43%)
                                         0.0000  0.0079  0.6414 -0.0333  0.6535
                                        -0.0038  0.1181  0.0001 -0.3769 -0.0194
                                        -0.0497  0.0260 -0.0236 -0.0141
  46. (0.00007) RY ( 4) C  1            s( 39.90%)p 0.77( 30.58%)d 0.74( 29.52%)
  47. (0.00002) RY ( 5) C  1            s(  7.69%)p 0.87(  6.66%)d11.13( 85.65%)
  48. (0.00001) RY ( 6) C  1            s(  8.13%)p 1.05(  8.52%)d10.25( 83.34%)
  49. (0.00001) RY ( 7) C  1            s(  0.00%)p 1.00(  0.90%)d99.99( 99.10%)
  50. (0.00000) RY ( 8) C  1            s(  0.03%)p98.34(  2.89%)d99.99( 97.08%)
  51. (0.00000) RY ( 9) C  1            s(  1.77%)p 0.28(  0.50%)d55.32( 97.74%)
  52. (0.00529) RY ( 1) C  2            s(  2.75%)p32.24( 88.72%)d 3.10(  8.53%)
                                         0.0000  0.0352  0.1621  0.0164  0.8525
                                         0.0114  0.3563 -0.0092 -0.1817 -0.0481
                                        -0.0874  0.0039  0.2735 -0.0229
  53. (0.00288) RY ( 2) C  2            s( 13.69%)p 4.90( 67.01%)d 1.41( 19.30%)
                                         0.0000 -0.0167  0.3696  0.0043  0.2815
                                         0.0195 -0.7272  0.0145  0.2480  0.2140
                                         0.2750 -0.1082  0.1268 -0.2092
  54. (0.00256) RY ( 3) C  2            s(  4.47%)p12.67( 56.67%)d 8.69( 38.85%)
                                         0.0000 -0.0084  0.2113 -0.0079 -0.0265
                                         0.0143 -0.3519 -0.0244 -0.6644  0.2244
                                        -0.4985  0.0002 -0.1227  0.2732
  55. (0.00130) RY ( 4) C  2            s( 68.89%)p 0.39( 27.10%)d 0.06(  4.01%)
                                         0.0000 -0.0012  0.8300  0.0179 -0.3365
                                        -0.0069  0.3732 -0.0031  0.1344  0.0971
                                        -0.0644 -0.0421  0.1571  0.0069
  56. (0.00108) RY ( 5) C  2            s(  0.02%)p99.99( 21.34%)d99.99( 78.63%)
                                         0.0000  0.0000  0.0148 -0.0015 -0.1231
                                         0.0013  0.0346 -0.0041 -0.4439 -0.2818
                                         0.2782 -0.7352  0.0601 -0.2921
  57. (0.00061) RY ( 6) C  2            s(  5.69%)p 0.95(  5.43%)d15.61( 88.88%)
                                         0.0000 -0.0116  0.2383 -0.0116  0.0106
                                         0.0389 -0.2280  0.0066 -0.0226 -0.8773
                                        -0.1056  0.3134 -0.0877 -0.0458
  58. (0.00025) RY ( 7) C  2            s(  3.85%)p 1.71(  6.57%)d23.29( 89.58%)
                                         0.0000  0.0118  0.1958 -0.0056  0.1924
                                         0.0028  0.1561  0.0006 -0.0657  0.1117
                                         0.2147  0.0606 -0.8925 -0.1922
  59. (0.00006) RY ( 8) C  2            s(  0.01%)p 1.00( 26.58%)d 2.76( 73.41%)
  60. (0.00002) RY ( 9) C  2            s(  0.84%)p 0.73(  0.61%)d99.99( 98.55%)
  61. (0.00273) RY ( 1) C  3            s(  1.15%)p78.01( 89.73%)d 7.93(  9.12%)
                                         0.0000 -0.0059  0.1071  0.0069 -0.1264
                                         0.0024  0.1304  0.0161  0.9295  0.0224
                                         0.0584 -0.2464  0.1294 -0.0993
  62. (0.00252) RY ( 2) C  3            s(  7.06%)p11.76( 82.98%)d 1.41(  9.96%)
                                         0.0000 -0.0087  0.2655  0.0017 -0.8351
                                         0.0082  0.3077 -0.0101 -0.1940  0.2095
                                        -0.1243  0.0502  0.1912  0.0350
  63. (0.00189) RY ( 3) C  3            s( 16.63%)p 4.45( 73.93%)d 0.57(  9.43%)
                                         0.0000  0.0197  0.4073  0.0100 -0.2818
                                        -0.0031 -0.8091 -0.0020  0.0716 -0.2572
                                         0.0265  0.0857 -0.1386 -0.0307
  64. (0.00045) RY ( 4) C  3            s( 13.11%)p 0.35(  4.55%)d 6.28( 82.34%)
                                         0.0000 -0.0015  0.3621 -0.0059  0.1912
                                        -0.0007  0.0847  0.0014 -0.0413  0.1464
                                         0.6175  0.4279  0.3458 -0.3435
  65. (0.00040) RY ( 5) C  3            s( 58.45%)p 0.33( 19.45%)d 0.38( 22.10%)
                                         0.0000 -0.0037  0.7645 -0.0124  0.3904
                                        -0.0023  0.1825  0.0040 -0.0926  0.0456
                                        -0.3817 -0.2485  0.0035  0.1070
  66. (0.00007) RY ( 6) C  3            s(  0.11%)p81.56(  8.85%)d99.99( 91.04%)
  67. (0.00006) RY ( 7) C  3            s(  0.04%)p99.99(  8.96%)d99.99( 91.00%)
  68. (0.00003) RY ( 8) C  3            s(  3.33%)p 3.28( 10.92%)d25.72( 85.74%)
  69. (0.00001) RY ( 9) C  3            s(  0.19%)p 3.68(  0.69%)d99.99( 99.12%)
  70. (0.00349) RY ( 1) C  4            s( 21.42%)p 3.45( 74.00%)d 0.21(  4.58%)
                                         0.0000  0.0236  0.4622 -0.0012 -0.6412
                                        -0.0142 -0.5540 -0.0011  0.1475  0.1196
                                        -0.0522 -0.0469  0.1605 -0.0279
  71. (0.00222) RY ( 2) C  4            s(  0.91%)p97.55( 88.39%)d11.81( 10.70%)
                                         0.0000 -0.0019  0.0952 -0.0072 -0.1044
                                         0.0037 -0.0562 -0.0165 -0.9325 -0.0653
                                         0.2613  0.0120  0.0808 -0.1667
  72. (0.00200) RY ( 3) C  4            s( 14.43%)p 5.69( 82.11%)d 0.24(  3.46%)
                                         0.0000 -0.0058  0.3798 -0.0069  0.7121
                                         0.0092 -0.5594  0.0077 -0.0302 -0.1363
                                        -0.0911  0.0656 -0.0561  0.0165
  73. (0.00069) RY ( 4) C  4            s( 42.26%)p 0.60( 25.50%)d 0.76( 32.24%)
                                         0.0000 -0.0073  0.6500  0.0122 -0.0855
                                        -0.0103  0.4921 -0.0040  0.0723 -0.5104
                                        -0.0298  0.1627 -0.1742 -0.0653
  74. (0.00028) RY ( 5) C  4            s(  0.02%)p77.07(  1.38%)d99.99( 98.60%)
                                         0.0000 -0.0002  0.0134 -0.0001 -0.0438
                                        -0.0004  0.0295 -0.0017 -0.1051  0.2996
                                        -0.1950  0.8905  0.0026  0.2555
  75. (0.00009) RY ( 6) C  4            s( 20.13%)p 0.84( 16.94%)d 3.13( 62.93%)
  76. (0.00008) RY ( 7) C  4            s(  0.01%)p 1.00(  9.97%)d 9.03( 90.03%)
  77. (0.00006) RY ( 8) C  4            s(  0.17%)p 9.96(  1.73%)d99.99( 98.09%)
  78. (0.00001) RY ( 9) C  4            s(  0.73%)p 0.06(  0.05%)d99.99( 99.22%)
  79. (0.01840) RY ( 1) C  5            s( 10.94%)p 8.12( 88.84%)d 0.02(  0.23%)
                                         0.0000 -0.0690  0.3234 -0.0243  0.6169
                                         0.0196 -0.6671  0.0072 -0.2485  0.0414
                                         0.0124 -0.0123 -0.0143  0.0057
  80. (0.01145) RY ( 2) C  5            s(  0.32%)p99.99( 64.38%)d99.99( 35.30%)
                                         0.0000 -0.0138  0.0552  0.0448 -0.5692
                                         0.0365 -0.5494 -0.0111  0.1203  0.1163
                                        -0.1547 -0.0868  0.5549  0.0084
  81. (0.00464) RY ( 3) C  5            s(  0.25%)p84.52( 21.17%)d99.99( 78.58%)
                                         0.0000  0.0004  0.0500 -0.0208 -0.1454
                                         0.0068  0.0485 -0.0583 -0.4293 -0.1951
                                         0.6472 -0.3250  0.1641 -0.4431
  82. (0.00252) RY ( 4) C  5            s( 68.82%)p 0.10(  7.17%)d 0.35( 24.01%)
                                         0.0000  0.0028  0.8296 -0.0249 -0.1799
                                         0.0381  0.1832  0.0160  0.0590 -0.4323
                                        -0.1434  0.1750 -0.0199 -0.0396
  83. (0.00154) RY ( 5) C  5            s(  0.04%)p99.99( 34.97%)d99.99( 64.99%)
                                         0.0000  0.0046  0.0199 -0.0040  0.4059
                                         0.0047  0.4128 -0.0014 -0.1204  0.0223
                                        -0.2213 -0.0970  0.7669  0.0534
  84. (0.00137) RY ( 6) C  5            s(  0.09%)p99.99( 44.94%)d99.99( 54.97%)
                                         0.0000  0.0003  0.0302  0.0047  0.2024
                                        -0.0005 -0.0371  0.0180  0.6377  0.0707
                                         0.4946  0.4403  0.2251 -0.2358
  85. (0.00039) RY ( 7) C  5            s( 17.90%)p 0.24(  4.29%)d 4.35( 77.81%)
                                         0.0000  0.0198  0.4226  0.0199 -0.0593
                                         0.0019  0.1958 -0.0045  0.0257  0.8373
                                         0.0411 -0.2150 -0.1116 -0.1288
  86. (0.00014) RY ( 8) C  5            s(  0.06%)p99.99( 34.08%)d99.99( 65.86%)
                                         0.0000 -0.0006  0.0243 -0.0014  0.1677
                                         0.0010 -0.0416 -0.0048  0.5576 -0.2271
                                        -0.0946 -0.7604 -0.0887 -0.1096
  87. (0.00001) RY ( 9) C  5            s(  1.99%)p 0.20(  0.39%)d48.97( 97.61%)
  88. (0.00201) RY ( 1) O  6            s(  1.12%)p86.54( 97.12%)d 1.56(  1.75%)
                                         0.0000 -0.0011  0.1059 -0.0038 -0.6099
                                        -0.0086 -0.7584 -0.0002  0.1551  0.0184
                                        -0.0376 -0.0164  0.1238  0.0131
  89. (0.00078) RY ( 2) O  6            s(  0.56%)p99.99( 95.16%)d 7.59(  4.28%)
                                         0.0000 -0.0008  0.0750  0.0082 -0.3057
                                        -0.0033  0.0683  0.0188 -0.9236 -0.0365
                                         0.1549 -0.0528  0.0626 -0.1034
  90. (0.00029) RY ( 3) O  6            s( 96.70%)p 0.03(  2.99%)d 0.00(  0.31%)
                                         0.0000 -0.0067  0.9834  0.0198  0.0156
                                        -0.0145  0.1495 -0.0080  0.0812  0.0176
                                        -0.0184 -0.0047  0.0368  0.0328
  91. (0.00008) RY ( 4) O  6            s(  1.21%)p78.96( 95.79%)d 2.47(  3.00%)
  92. (0.00003) RY ( 5) O  6            s(  0.10%)p22.38(  2.17%)d99.99( 97.74%)
  93. (0.00001) RY ( 6) O  6            s(  0.22%)p12.35(  2.72%)d99.99( 97.06%)
  94. (0.00001) RY ( 7) O  6            s(  0.01%)p53.43(  0.54%)d99.99( 99.45%)
  95. (0.00000) RY ( 8) O  6            s(  0.06%)p 0.69(  0.04%)d99.99( 99.91%)
  96. (0.00000) RY ( 9) O  6            s(  0.00%)p 1.00(  3.99%)d24.08( 96.01%)
  97. (0.00195) RY ( 1) N  7            s(  9.11%)p 9.25( 84.31%)d 0.72(  6.58%)
                                         0.0000  0.0128  0.3016  0.0028  0.1809
                                         0.0028 -0.5413 -0.0078  0.7192 -0.0366
                                         0.1452 -0.1474 -0.0687 -0.1300
  98. (0.00178) RY ( 2) N  7            s(  0.38%)p99.99( 88.13%)d30.22( 11.49%)
                                         0.0000  0.0227  0.0573  0.0044 -0.5363
                                         0.0073 -0.6620  0.0037 -0.3943  0.1224
                                         0.0249  0.0865 -0.3023  0.0192
  99. (0.00157) RY ( 3) N  7            s( 73.87%)p 0.23( 16.74%)d 0.13(  9.39%)
                                         0.0000 -0.0057  0.8594  0.0052  0.2057
                                        -0.0070  0.0056  0.0019 -0.3536 -0.1711
                                        -0.1349  0.0956  0.1926 -0.0128
 100. (0.00085) RY ( 4) N  7            s(  6.09%)p12.98( 79.08%)d 2.43( 14.82%)
                                         0.0000 -0.0097  0.2466 -0.0070 -0.7283
                                        -0.0014  0.3758 -0.0020  0.3451 -0.3667
                                         0.0212  0.0901 -0.0588 -0.0423
 101. (0.00041) RY ( 5) N  7            s(  0.10%)p58.86(  5.78%)d99.99( 94.12%)
                                         0.0000 -0.0005  0.0313  0.0008  0.0524
                                         0.0000 -0.0138  0.0001  0.2343  0.1304
                                        -0.7461  0.2555 -0.2672  0.4804
 102. (0.00022) RY ( 6) N  7            s(  5.93%)p 2.01( 11.90%)d13.85( 82.17%)
                                         0.0000 -0.0202  0.2428  0.0024  0.0736
[...]
                   0.00459   0.00130   0.00062   0.00007   0.00002   0.00001
                  --------  --------  --------  --------  --------  --------
  0 C               183.3     113.5     290.3     151.8     127.0     115.4
  1 C               -44.3     -11.9    -170.5     -12.8      -9.5      -4.2
  2 C                 2.3      -0.2      -9.3      -0.1      -0.1       0.2
  3 C                -0.1      -0.0       0.0      -0.0       0.0      -0.0
  4 C                -0.0      -0.0      -0.5      -0.0      -0.0       0.0
  5 O                -0.0      -0.0      -0.3      -0.0      -0.0      -0.0
  6 N                 0.9      -0.2      -4.6      -0.3       0.0       0.0
  7 H               -21.6      -0.6      -2.5     -20.0      -5.6      -8.3
  8 H               -20.1      -0.2      -1.3     -18.5     -11.9      -3.0
  9 H                -0.2      -0.2      -0.1      -0.0      -0.0      -0.0
 10 H                -0.2      -0.1      -0.2      -0.0      -0.0      -0.0
 13 H                -0.0      -0.0      -0.9       0.0       0.0      -0.0

                     48        49        50        51        52        53   
                   0.00000   0.00000   0.00000   0.00000   0.00000   0.00000
                   0.00001   0.00000   0.00000   0.00529   0.00288   0.00256
                  --------  --------  --------  --------  --------  --------
  0 C               105.3     104.7     111.2     -73.7     -33.3     -12.9
  1 C                -0.4      -3.2      -1.3     260.2     202.6     143.1
  2 C                -0.0      -0.1      -0.1     -64.9      -9.5      -5.5
  3 C                -0.0      -0.0      -0.0      10.7      -1.0      -0.2
  4 C                -0.0      -0.0      -0.0     -11.3      -5.0      -2.5
  5 O                -0.0      -0.0      -0.0      -0.8      -0.2      -0.2
  6 N                -0.0      -0.1      -0.1     -19.8     -54.8     -21.8
  7 H                -2.6      -0.3      -4.1      -1.6       0.3       0.2
  8 H                -2.3      -0.9      -5.6       1.3       1.4       0.4
 10 H                -0.0      -0.0      -0.0       0.0       0.3      -0.2
 13 H                -0.0      -0.0      -0.0      -0.1      -1.0      -0.4

                     54        55        56        57        58        59   
                   0.00000   0.00000   0.00000   0.00000   0.00000   0.00000
                   0.00130   0.00108   0.00061   0.00025   0.00006   0.00002
                  --------  --------  --------  --------  --------  --------
  0 C              -126.3      -1.8     -11.7      -3.4      -3.2      -0.9
  1 C               297.0     106.4     110.7     116.0     111.7     105.6
  2 C               -73.7       0.4      -2.9      -9.2      -8.5      -2.0
  3 C                 0.2      -0.3       1.1       0.6       0.3       0.3
  4 C                 0.2       0.2      -2.2       1.1      -0.4      -0.6
  6 N                -0.2      -4.4       4.8      -4.8      -1.0      -2.1
  7 H                 4.0       0.0       0.1      -0.1      -0.0      -0.0
  8 H                -1.6      -0.0      -0.0       0.2       0.0      -0.1
  9 H                 0.5      -0.2      -0.1      -0.2       0.5      -0.0
 10 H                 0.4      -0.2      -0.1      -0.1       0.5      -0.0
 13 H                -0.2      -0.2       0.4      -0.2       0.0      -0.1

                     60        61        62        63        64        65   
                   0.00000   0.00000   0.00000   0.00000   0.00000   0.00000
                   0.00273   0.00252   0.00189   0.00045   0.00040   0.00007
                  --------  --------  --------  --------  --------  --------
  0 C                -0.3      -0.9      -3.2      -0.3      -1.3      -0.4
  1 C               -10.3     -20.4     -99.6      -6.6     -26.3      -2.8
  2 C               150.2     157.4     227.2     135.1     236.8     108.2
  3 C               -14.5     -10.4     -22.0     -20.7     -89.4      -2.2
  4 C                 0.2      -0.4       4.4       1.3       5.9       0.6
  5 O                 0.0      -0.0      -0.0       0.0       0.2      -0.0
  6 N                -0.5      -2.1      -3.1       0.0       0.2       0.1
  7 H                -0.3      -1.1      -1.4       0.0       0.0      -0.0
  8 H                -0.0      -0.0       0.3       0.0       0.0      -0.0
  9 H               -21.1      -2.0      -1.3      -3.1     -15.8      -1.7
 10 H                -4.0     -20.0      -0.9      -6.0     -12.0      -1.6
 11 H                -0.1       0.4      -0.2      -0.2       1.2      -0.0
 12 H                 0.7      -0.4      -0.2       0.5       0.4      -0.0

                     66        67        68        69        70        71   
                   0.00000   0.00000   0.00000   0.00000   0.00000   0.00000
                   0.00006   0.00003   0.00001   0.00349   0.00222   0.00200
                  --------  --------  --------  --------  --------  --------
  0 C                 0.0       1.0      -0.1      -0.1       0.0       0.0
  1 C                -0.5      -5.0      -1.7      10.4      -0.0      -2.2
  2 C               117.6     116.3     108.1     -62.3     -12.3      -5.7
  3 C                -1.6      -2.8      -1.2     230.2     148.4     191.0
  4 C                 0.0      -0.4       0.0     -74.0     -11.1     -60.6
  5 O                -0.0      -0.0      -0.0      -2.8      -0.7       0.0
  6 N                 0.0       0.4      -0.0       1.6      -0.3      -4.8
  7 H                -0.0      -0.2      -0.0       0.0      -0.0      -0.0
  9 H                -7.0      -5.2      -2.5       0.0       0.5      -0.4
 10 H                -8.7      -3.9      -2.5       0.1       0.1      -0.0
 11 H                 0.1      -0.1      -0.0      -1.4      -7.4     -13.2
 12 H                 0.1      -0.1      -0.0      -1.4     -17.2      -3.8
 13 H                -0.0      -0.0      -0.0      -0.2      -0.0      -0.2

                     72        73        74        75        76        77   
                   0.00000   0.00000   0.00000   0.00000   0.00000   0.00000
                   0.00069   0.00028   0.00009   0.00008   0.00006   0.00001
                  --------  --------  --------  --------  --------  --------
  0 C                -0.2      -0.0       0.1       0.0      -0.0      -0.0
  1 C                 3.1      -0.0      -0.3       0.0       0.4      -0.0
  2 C               -61.9      -1.6     -16.3      -2.0      -2.9      -1.3
  3 C               193.3     107.1     141.5     118.1     105.9     109.9
  4 C                -9.4      -0.6      -4.7      -0.3      -1.9      -1.8
  5 O                -0.6       0.0      -0.4       0.0      -0.1      -0.0
  6 N                -0.1      -0.0       0.0      -0.0      -0.2      -0.0
  9 H                 0.8      -0.0       0.2       0.1      -0.0      -0.0
 10 H                 0.8       0.1       0.2       0.1      -0.0      -0.0
 11 H               -13.1      -2.2     -10.6      -7.6      -0.7      -3.3
 12 H               -12.7      -2.6      -9.7      -8.4      -0.4      -3.3

                     78        79        80        81        82        83   
                   0.00000   0.00000   0.00000   0.00000   0.00000   0.00000
                   0.01840   0.01145   0.00464   0.00252   0.00154   0.00137
                  --------  --------  --------  --------  --------  --------
  0 C                -0.5      -0.5      -0.0      -0.2       0.1       0.0
  1 C                -2.9      -5.3      -0.2     -11.4       0.0       0.3
  2 C                 0.7      -1.3       0.1       9.3      -0.6      -0.2
  3 C                -8.8     -21.7      -1.2     -78.7     -22.6      -0.3
  4 C               164.9     167.1     106.9     203.2     152.2     108.1
  5 O               -45.7     -14.3      -4.6       2.8      -7.1      -1.6
  6 N                -6.4     -24.4      -0.7     -24.7     -20.4      -5.3
 11 H                -0.2       0.3      -0.1      -0.0       0.3      -0.4
 12 H                -0.2       0.3      -0.2       0.0       0.2      -0.4
 13 H                -0.8      -0.2      -0.0      -0.2      -2.1      -0.1

                     84        85        86        87        88        89   
                   0.00000   0.00000   0.00000   0.00000   0.00000   0.00000
                   0.00039   0.00014   0.00001   0.00201   0.00078   0.00029
                  --------  --------  --------  --------  --------  --------
  0 C                -0.0      -0.0      -0.0      -0.0      -0.0      -0.4
  1 C                -0.8      -0.5      -0.7      -0.0      -0.0      -1.1
  2 C                 3.4       0.4       0.5      -0.1      -0.0       0.2
  3 C               -26.1      -9.0      -3.4      -0.5      -0.5      -2.8
  4 C               133.8     109.5     106.1     -18.9      -4.9     -31.4
  5 O                -2.1      -1.0      -0.3     120.6     106.0     138.7
  6 N                -7.4      -0.5      -2.1      -1.1      -0.3      -2.7
 11 H                -0.2       0.6      -0.0      -0.0      -0.1      -0.1
 12 H                -0.2       0.6      -0.0      -0.0      -0.1      -0.1
 13 H                -0.3       0.0      -0.1       0.0      -0.0      -0.1

                     90        91        92        93        94        95   
                   0.00000   0.00000   0.00000   0.00000   0.00000   0.00000
                   0.00008   0.00003   0.00001   0.00001   0.00000   0.00000
                  --------  --------  --------  --------  --------  --------
  3 C                -0.0      -0.0      -0.7      -0.0       0.0      -0.1
  4 C                -4.7      -2.2      -2.6      -0.2      -0.3      -3.0
  5 O               105.0     102.3     103.5     100.3     100.4     103.2
  6 N                -0.3      -0.1      -0.2      -0.0      -0.0      -0.1

                     96        97        98        99       100       101   
                   0.00000   0.00000   0.00000   0.00000   0.00000   0.00000
                   0.00195   0.00178   0.00157   0.00085   0.00041   0.00022
                  --------  --------  --------  --------  --------  --------
  0 C                -2.0      -0.0      -2.6       1.6      -0.0       0.3
  1 C               -13.3     -13.8     -45.8     -13.1      -1.9      -4.4
  2 C                 0.5       1.2      -3.4      -2.9      -0.0       0.0
  3 C                 0.8       0.7       0.8      -5.5      -0.1      -0.1
  4 C                -9.8      -9.5     -15.4     -37.1      -0.8      -3.7
  5 O                -1.1      -1.0      -1.0      -1.0       0.0      -0.3
  6 N               127.2     132.5     172.7     159.8     102.8     116.0
  7 H                 0.0       0.0       0.2       0.0      -0.0      -0.0
  8 H                -0.0       0.0      -0.4      -0.3      -0.0      -0.1
 13 H                -2.4     -10.1      -5.0      -1.4      -0.0      -7.8

                    102       103       104       105       106       107   
                   0.00000   0.00000   0.00000   0.00000   0.00000   0.00000
                   0.00012   0.00002   0.00001   0.00137   0.00031   0.00010
                  --------  --------  --------  --------  --------  --------
  0 C                 0.6      -0.1      -0.0     -46.0      -3.3      -3.0
  1 C                -3.8      -2.0      -0.7       2.9      -0.0      -0.6
  2 C                -0.1      -0.0      -0.0      -2.7      -0.0      -0.1
  3 C                -0.7      -0.1      -0.0       0.0      -0.0      -0.0
  4 C                -5.6      -2.1      -0.8      -0.0      -0.0      -0.0
  5 O                -0.1      -0.2      -0.0       0.0      -0.0      -0.0
  6 N               112.8     105.4     103.9       0.3      -0.0      -0.0
  7 H                -0.0      -0.0      -0.0     147.2     103.4     104.2
  8 H                 0.0      -0.0      -0.0      -1.5      -0.1      -0.5
  9 H                -0.0      -0.0      -0.0      -0.2      -0.0      -0.0
 10 H                -0.0      -0.0      -0.0      -0.2      -0.0      -0.0
 13 H                -3.1      -1.0      -2.4      -0.0      -0.0      -0.0

                    108       109       110       111       112       113   
                   0.00000   0.00000   0.00000   0.00000   0.00000   0.00000
                   0.00005   0.00146   0.00030   0.00011   0.00003   0.00193
                  --------  --------  --------  --------  --------  --------
  0 C                -8.8     -43.6      -3.2      -3.1      -9.0      -0.5
  1 C                 0.0       1.4      -0.0      -0.6       0.1       0.5
  2 C                -0.1       0.5      -0.0      -0.0      -0.0     -37.8
  3 C                -0.0      -0.1      -0.0      -0.0       0.0       1.0
  6 N                -0.0      -0.7      -0.0      -0.1      -0.0       0.1
  7 H               109.0      -1.4      -0.1      -0.6      -0.1      -0.2
  8 H                -0.1     145.1     103.4     104.3     109.2      -0.0
  9 H                -0.0      -0.0      -0.0      -0.0      -0.0     138.8
 10 H                -0.0      -0.0      -0.0      -0.0      -0.0      -0.4
 11 H                -0.0      -0.0      -0.0      -0.0      -0.0      -1.5
 13 H                -0.0      -1.2      -0.0      -0.0      -0.2       0.0

                    114       115       116       117       118       119   
                   0.00000   0.00000   0.00000   0.00000   0.00000   0.00000
                   0.00014   0.00011   0.00002   0.00192   0.00015   0.00011
                  --------  --------  --------  --------  --------  --------
  0 C                -0.1      -0.0      -0.0      -0.5      -0.1      -0.0
  1 C                -0.0      -0.0      -0.2       0.5      -0.0      -0.1
  2 C                -3.1      -4.6      -7.6     -37.9      -3.3      -4.3
  3 C                -0.3       0.1      -0.3       1.0      -0.2       0.0
  6 N                -0.0      -0.1       0.0       0.1      -0.0      -0.1
  7 H                -0.0      -0.0      -0.0      -0.2      -0.0      -0.0
  9 H               104.3     105.5     108.2      -0.4      -0.6      -0.8
 10 H                -0.6      -0.8       0.0     138.8     104.4     105.3
 12 H                -0.0      -0.0      -0.0      -1.5      -0.1      -0.0

                    120       121       122       123       124       125   
                   0.00000   0.00000   0.00000   0.00000   0.00000   0.00000
                   0.00002   0.00221   0.00016   0.00010   0.00002   0.00222
                  --------  --------  --------  --------  --------  --------
  1 C                -0.2      -0.0      -0.1      -0.0       0.0      -0.0
  2 C                -7.7       0.8      -0.2      -0.1      -0.3       0.8
  3 C                -0.2     -37.7      -3.6      -4.0      -7.7     -37.7
  4 C                 0.0      -0.1      -0.1      -0.2      -0.2      -0.1
  9 H                -0.0      -1.5      -0.1      -0.0      -0.1       0.0
 10 H               108.2       0.0      -0.0      -0.0      -0.0      -1.5
 11 H                -0.0     138.9     104.7     105.1     108.3      -0.5
 12 H                -0.1      -0.5      -0.6      -0.7       0.0     138.9

                    126       127       128       129       130       131   
                   0.00000   0.00000   0.00000   0.00000   0.00000   0.00000
                   0.00015   0.00010   0.00002   0.00465   0.00038   0.00012
                  --------  --------  --------  --------  --------  --------
  0 C                -0.0      -0.0      -0.0      -0.5      -0.0      -0.0
  1 C                -0.1      -0.0       0.0      -2.0      -0.1      -0.4
  2 C                -0.2      -0.0      -0.3      -0.1      -0.0      -0.0
  3 C                -3.5      -4.1      -7.8      -0.5      -0.0      -0.0
  4 C                -0.1      -0.1      -0.2      -4.0      -0.1      -0.3
  6 N                -0.0      -0.1       0.0      -7.4      -3.3      -3.3
  8 H                -0.0      -0.0      -0.0      -1.3      -0.0      -0.0
 11 H                -0.6      -0.7       0.0       0.0      -0.0      -0.0
 12 H               104.6     105.2     108.3       0.0      -0.0      -0.0
 13 H                -0.0      -0.0      -0.0     115.8     103.7     104.2

                    132   
                   0.00000
                   0.00005
                  --------
  1 C                -0.1
  6 N                -5.7
 13 H               105.8

Storing NBOs: 4632.nbo
                                    *** NBOs were stored ***

                                *** returned from GENNBO program ***

-------
TIMINGS
-------

Total SCF time: 0 days 0 hours 0 min 5 sec 

Total time                  ....       5.233 sec
Sum of individual times     ....       5.682 sec  (108.6%)

Fock matrix formation       ....       3.422 sec  ( 65.4%)
  Coulomb formation         ....       1.845 sec  ( 53.9% of F)
  Split-RI-J                ....       1.836 sec  ( 53.7% of F)
  XC integration            ....       1.573 sec  ( 46.0% of F)
    Basis function eval.    ....       0.507 sec  ( 32.2% of XC)
    Density eval.           ....       0.277 sec  ( 17.6% of XC)
    XC-Functional eval.     ....       0.094 sec  (  6.0% of XC)
    XC-Potential eval.      ....       0.618 sec  ( 39.3% of XC)
Diagonalization             ....       0.020 sec  (  0.4%)
Density matrix formation    ....       0.002 sec  (  0.0%)
Population analysis         ....       1.257 sec  ( 24.0%)
Initial guess               ....       0.344 sec  (  6.6%)
Orbital Transformation      ....       0.000 sec  (  0.0%)
Orbital Orthonormalization  ....       0.000 sec  (  0.0%)
DIIS solution               ....       0.004 sec  (  0.1%)
SOSCF solution              ....       0.012 sec  (  0.2%)
Grid generation             ....       0.620 sec  ( 11.8%)
           ************************************************************
           *              Shut down parallel processing               *
           ************************************************************

-------------------------   --------------------
FINAL SINGLE POINT ENERGY      -324.097228846949
-------------------------   --------------------


                            ***************************************
                            *     ORCA property calculations      *
                            ***************************************

                                    ---------------------
                                    Active property flags
                                    ---------------------
   (+) Dipole Moment


------------------------------------------------------------------------------
                       ORCA ELECTRIC PROPERTIES CALCULATION
------------------------------------------------------------------------------

Dipole Moment Calculation                       ... on
Quadrupole Moment Calculation                   ... off
Polarizability Calculation                      ... off
GBWName                                         ... 4632.gbw
Electron density file                           ... 4632.scfp.tmp

-------------
DIPOLE MOMENT
-------------
                                X             Y             Z
Electronic contribution:      3.26544      -4.13321      -1.35609
Nuclear contribution   :     -3.97741       4.73268       1.62941
                        -----------------------------------------
Total Dipole Moment    :     -0.71197       0.59947       0.27332
                        -----------------------------------------
Magnitude (a.u.)       :      0.97003
Magnitude (Debye)      :      2.46563


Timings for individual modules:

Sum of individual times         ...        6.377 sec (=   0.106 min)
GTO integral calculation        ...        0.473 sec (=   0.008 min)   7.4 %
SCF iterations                  ...        5.904 sec (=   0.098 min)  92.6 %
                             ****ORCA TERMINATED NORMALLY****
TOTAL RUN TIME: 0 days 0 hours 0 minutes 6 seconds 768 msec
