
                                 *****************
                                 * O   R   C   A *
                                 *****************

           --- An Ab Initio, DFT and Semiempirical electronic structure package ---

                  #######################################################
                  #                        -***-                        #
                  #  Department of molecular theory and spectroscopy    #
                  #              Directorship: Frank Neese              #
                  # Max Planck Institute for Chemical Energy Conversion #
                  #                  D-45470 Muelheim/Ruhr              #
                  #                       Germany                       #
                  #                                                     #
                  #                  All rights reserved                #
                  #                        -***-                        #
                  #######################################################


                         Program Version 3.0.3 - RELEASE   -


 With contributions from (in alphabetic order):
   Ute Becker             : Parallelization
   Dmytro Bykov           : SCF Hessian
   Dmitry Ganyushin       : Spin-Orbit,Spin-Spin,Magnetic field MRCI
   Andreas Hansen         : Spin unrestricted coupled pair/coupled cluster methods
   Dimitrios Liakos       : Extrapolation schemes; parallel MDCI
   Robert Izsak           : Overlap fitted RIJCOSX, COSX-SCS-MP3
   Christian Kollmar      : KDIIS, OOCD, Brueckner-CCSD(T), CCSD density
   Simone Kossmann        : Meta GGA functionals, TD-DFT gradient, OOMP2, MP2 Hessian
   Taras Petrenko         : DFT Hessian,TD-DFT gradient, ASA and ECA modules, normal mode analysis, Resonance Raman, ABS, FL, XAS/XES, NRVS
   Christoph Reimann      : Effective Core Potentials
   Michael Roemelt        : Restricted open shell CIS
   Christoph Riplinger    : Improved optimizer, TS searches, QM/MM, DLPNO-CCSD
   Barbara Sandhoefer     : DKH picture change effects
   Igor Schapiro          : Molecular dynamics
   Kantharuban Sivalingam : CASSCF convergence, NEVPT2
   Boris Wezisla          : Elementary symmetry handling
   Frank Wennmohs         : Technical directorship


 We gratefully acknowledge several colleagues who have allowed us to
 interface, adapt or use parts of their codes:
   Stefan Grimme, W. Hujo, H. Kruse, T. Risthaus : VdW corrections, initial TS optimization,
                                                   DFT functionals, gCP
   Ed Valeev                                     : LibInt (2-el integral package), F12 methods
   Garnet Chan, S. Sharma, R. Olivares           : DMRG
   Ulf Ekstrom                                   : XCFun DFT Library
   Mihaly Kallay                                 : mrcc  (arbitrary order and MRCC methods)
   Andreas Klamt, Michael Diedenhofen            : otool_cosmo (COSMO solvation model)
   Frank Weinhold                                : gennbo (NPA and NBO analysis)
   Christopher J. Cramer and Donald G. Truhlar   : smd solvation model


 Your calculation uses the libint2 library for the computation of 2-el integrals
 For citations please refer to: http://libint.valeyev.net

 This ORCA versions uses:
   CBLAS   interface :  Fast vector & matrix operations
   LAPACKE interface :  Fast linear algebra routines
   SCALAPACK package :  Parallel linear algebra routines


Your calculation utilizes the basis: Ahlrichs-VDZ
Cite in your paper:
H - Kr: A. Schaefer, H. Horn and R. Ahlrichs, J. Chem. Phys. 97, 2571 (1992).

Your calculation utilizes the basis: Ahlrichs SVPalls1+f
Cite in your paper:
Rb - Xe: A. Schaefer, C. Huber and R. Ahlrichs, J. Chem. Phys. 100, 5829 (1994).

================================================================================
                                        WARNINGS
                       Please study these warnings very carefully!
================================================================================
Now building the actual basis set


INFO   : the flag for use of LIBINT has been found!

================================================================================
                                       INPUT FILE
================================================================================
NAME = 4643.inp
|  1> ! RI PBE def2-SVP def2-SVP/J NBO PAL2
|  2> % maxcore 2000
|  3> % output
|  4>     # printlevel mini
|  5>     print[ P_Basis ] 0
|  6>     print[ P_SCFInfo ] 1
|  7>     print[ P_SCFIterInfo ] 1
|  8>     print[ P_OrbEn ] 0
|  9>     print[ P_Cartesian ] 0
| 10> end
| 11> *xyz 0 1
| 12>  C        1.0812410000    -0.1233780000     0.4222170000 
| 13>  C        2.3470070000     0.0068220000     0.0554090000 
| 14>  C        3.1768230000     1.2470660000    -0.1041250000 
| 15>  C        4.5649460000     0.7451450000    -0.5539980000 
| 16>  N        4.4162320000    -0.6884740000    -0.6086700000 
| 17>  C        3.1921840000    -1.1795430000    -0.2787010000 
| 18>  O        2.8707050000    -2.3469620000    -0.2644520000 
| 19>  H        0.4547490000     0.7266690000     0.6677350000 
| 20>  H        0.6495680000    -1.1165240000     0.4809510000 
| 21>  H        3.2462270000     1.8026550000     0.8331460000 
| 22>  H        2.7452360000     1.9223100000    -0.8455490000 
| 23>  H        5.3465640000     1.0337480000     0.1554950000 
| 24>  H        4.8417710000     1.1504830000    -1.5321180000 
| 25>  H        5.1588480000    -1.3126180000    -0.8736390000 
| 26> *
| 27> 
| 28>                          ****END OF INPUT****
================================================================================

                       ****************************
                       * Single Point Calculation *
                       ****************************

--------------------------------
INTERNAL COORDINATES (ANGSTROEM)
--------------------------------
 C      0   0   0   0.000000     0.000     0.000
 C      1   0   0   1.324260     0.000     0.000
 C      2   1   0   1.500750   129.733     0.000
 C      3   2   1   1.543112   105.045   180.089
 N      4   3   2   1.442348   103.981   359.891
 C      5   4   3   1.359530   116.273     0.097
 O      6   5   4   1.210958   126.164   179.956
 H      1   2   3   1.084136   122.547     0.000
 H      1   2   3   1.084495   119.045   180.008
 H      3   2   1   1.091775   111.373    59.826
 H      3   2   1   1.091756   111.392   300.375
 H      4   3   2   1.094349   111.574   240.039
 H      4   3   2   1.094372   111.570   119.742
 H      5   4   3   1.005606   123.419   180.019

---------------------------
INTERNAL COORDINATES (A.U.)
---------------------------
 C      0   0   0   0.000000     0.000     0.000
 C      1   0   0   2.502488     0.000     0.000
 C      2   1   0   2.836007   129.733     0.000
 C      3   2   1   2.916060   105.045   180.089
 N      4   3   2   2.725643   103.981   359.891
 C      5   4   3   2.569139   116.273     0.097
 O      6   5   4   2.288379   126.164   179.956
 H      1   2   3   2.048720   122.547     0.000
 H      1   2   3   2.049399   119.045   180.008
 H      3   2   1   2.063156   111.373    59.826
 H      3   2   1   2.063120   111.392   300.375
 H      4   3   2   2.068019   111.574   240.039
 H      4   3   2   2.068063   111.570   119.742
 H      5   4   3   1.900319   123.419   180.019



           ************************************************************
           *        Program running with 2 parallel MPI-processes     *
           *              working on a common directory               *
           ************************************************************
------------------------------------------------------------------------------
                           ORCA GTO INTEGRAL CALCULATION
                           -- RI-GTO INTEGRALS CHOSEN --
------------------------------------------------------------------------------

                         BASIS SET STATISTICS AND STARTUP INFO

Gaussian basis set:
 # of primitive gaussian shells          ...  119
 # of primitive gaussian functions       ...  217
 # of contracted shells                  ...   63
 # of contracted basis functions         ...  133
 Highest angular momentum                ...    2
 Maximum contraction depth               ...    5
Auxiliary gaussian basis set:
 # of primitive gaussian shells          ...  224
 # of primitive gaussian functions       ...  602
 # of contracted shells                  ...  140
 # of contracted aux-basis functions     ...  420
 Highest angular momentum                ...    4
 Maximum contraction depth               ...    7
Ratio of auxiliary to basis functions    ...  3.16
Integral package used                  ... LIBINT
 One Electron integrals                  ... done
 Ordering auxiliary basis shells         ... done
 Integral threshhold             Thresh  ...  1.000e-10
 Primitive cut-off               TCut    ...  1.000e-11
 Pre-screening matrix                    ... done
 Shell pair data                         ... 
 Ordering of the shell pairs             ... done (   0.000 sec) 1959 of 2016 pairs
 Determination of significant pairs      ... done (   0.000 sec)
 Creation of shell pair data             ... done (   0.000 sec)
 Storage of shell pair data              ... done (   0.000 sec)
 Shell pair data done in (   0.001 sec)
 Computing two index integrals           ... done
 Cholesky decomposition of the V-matrix  ... done


Timings:
 Total evaluation time                   ...   0.147 sec (  0.002 min)
 One electron matrix time                ...   0.014 sec (  0.000 min) =  9.3%
 Schwartz matrix evaluation time         ...   0.069 sec (  0.001 min) = 47.1%
 Two index repulsion integral time       ...   0.007 sec (  0.000 min) =  5.0%
 Cholesky decomposition of V             ...   0.003 sec (  0.000 min) =  1.9%
 Three index repulsion integral time     ...   0.000 sec (  0.000 min) =  0.0%

           ************************************************************
           *              Shut down parallel processing               *
           ************************************************************


           ************************************************************
           *        Program running with 2 parallel MPI-processes     *
           *              working on a common directory               *
           ************************************************************
-------------------------------------------------------------------------------
                                 ORCA SCF
-------------------------------------------------------------------------------

------------
SCF SETTINGS
------------
Hamiltonian:
 Density Functional     Method          .... DFT(GTOs)
 Exchange Functional    Exchange        .... PBE
   PBE kappa parameter  XKappa          ....  0.804000
 Correlation Functional Correlation     .... PBE
 LDA part of GGA corr.  LDAOpt          .... PW91-LDA
 Gradients option       PostSCFGGA      .... off
   NL short-range parameter             ....  6.400000
 RI-approximation to the Coulomb term is turned on
   Number of auxiliary basis functions  .... 420


General Settings:
 Integral files         IntName         .... 4643
 Hartree-Fock type      HFTyp           .... RHF
 Total Charge           Charge          ....    0
 Multiplicity           Mult            ....    1
 Number of Electrons    NEL             ....   52
 Basis Dimension        Dim             ....  133
 Nuclear Repulsion      ENuc            ....    294.0169458378 Eh

Convergence Acceleration:
 DIIS                   CNVDIIS         .... on
   Start iteration      DIISMaxIt       ....    12
   Startup error        DIISStart       ....  0.200000
   # of expansion vecs  DIISMaxEq       ....     5
   Bias factor          DIISBfac        ....   1.050
   Max. coefficient     DIISMaxC        ....  10.000
 Newton-Raphson         CNVNR           .... off
 SOSCF                  CNVSOSCF        .... on
   Start iteration      SOSCFMaxIt      ....   150
   Startup grad/error   SOSCFStart      ....  0.003300
 Level Shifting         CNVShift        .... on
   Level shift para.    LevelShift      ....    0.2500
   Turn off err/grad.   ShiftErr        ....    0.0010
 Zerner damping         CNVZerner       .... off
 Static damping         CNVDamp         .... on
   Fraction old density DampFac         ....    0.7000
   Max. Damping (<1)    DampMax         ....    0.9800
   Min. Damping (>=0)   DampMin         ....    0.0000
   Turn off err/grad.   DampErr         ....    0.1000
 Fernandez-Rico         CNVRico         .... off

SCF Procedure:
 Maximum # iterations   MaxIter         ....   125
 SCF integral mode      SCFMode         .... Direct
   Integral package                     .... LIBINT
 Reset frequeny         DirectResetFreq ....    20
 Integral Threshold     Thresh          ....  1.000e-10 Eh
 Primitive CutOff       TCut            ....  1.000e-11 Eh

Convergence Tolerance:
 Convergence Check Mode ConvCheckMode   .... Total+1el-Energy
 Energy Change          TolE            ....  1.000e-06 Eh
 1-El. energy change                    ....  1.000e-03 Eh
 Orbital Gradient       TolG            ....  5.000e-05
 Orbital Rotation angle TolX            ....  5.000e-05
 DIIS Error             TolErr          ....  1.000e-06


Diagonalization of the overlap matrix:
Smallest eigenvalue                        ... 8.805e-04
Time for diagonalization                   ...    0.010 sec
Threshold for overlap eigenvalues          ... 1.000e-08
Number of eigenvalues below threshold      ... 0
Time for construction of square roots      ...    0.003 sec
Total time needed                          ...    0.014 sec

-------------------
DFT GRID GENERATION
-------------------

General Integration Accuracy     IntAcc      ...  4.340
Radial Grid Type                 RadialGrid  ... Gauss-Chebyshev
Angular Grid (max. acc.)         AngularGrid ... Lebedev-110
Angular grid pruning method      GridPruning ... 3 (G Style)
Weight generation scheme         WeightScheme... Becke
Basis function cutoff            BFCut       ...    1.0000e-10
Integration weight cutoff        WCut        ...    1.0000e-14
Grids for H and He will be reduced by one unit

# of grid points (after initial pruning)     ...  17256 (   0.0 sec)
# of grid points (after weights+screening)   ...  16129 (   0.0 sec)
nearest neighbour list constructed           ...    0.0 sec
Grid point re-assignment to atoms done       ...    0.0 sec
Grid point division into batches done        ...    0.0 sec
Reduced shell lists constructed in    0.1 sec

Total number of grid points                  ...    16129
Total number of batches                      ...      259
Average number of points per batch           ...       62
Average number of grid points per atom       ...     1152
Average number of shells per batch           ...    51.25 (81.35%)
Average number of basis functions per batch  ...   108.96 (81.93%)
Average number of large shells per batch     ...    42.06 (82.07%)
Average number of large basis fcns per batch ...    88.17 (80.92%)
Maximum spatial batch extension              ...  16.79, 17.49, 23.60 au
Average spatial batch extension              ...   1.44,  1.37,  1.67 au

Time for grid setup =    0.128 sec

------------------------------
INITIAL GUESS: MODEL POTENTIAL
------------------------------
Loading Hartree-Fock densities                     ... done
Calculating cut-offs                               ... done
Setting up the integral package                    ... done
Initializing the effective Hamiltonian             ... done
Starting the Coulomb interaction                   ... done (   0.0 sec)
Reading the grid                                   ... done
Mapping shells                                     ... done
Starting the XC term evaluation                    ... done (   0.1 sec)
  promolecular density results
     # of electrons  =     51.997100385
     EX              =    -42.343722540
     EC              =     -1.727690597
     EX+EC           =    -44.071413137
Transforming the Hamiltonian                       ... done (   0.0 sec)
Diagonalizing the Hamiltonian                      ... done (   0.0 sec)
Back transforming the eigenvectors                 ... done (   0.0 sec)
Now organizing SCF variables                       ... done
                      ------------------
                      INITIAL GUESS DONE (   0.3 sec)
                      ------------------
--------------
SCF ITERATIONS
--------------
ITER       Energy         Delta-E        Max-DP      RMS-DP      [F,P]     Damp
               ***  Starting incremental Fock matrix formation  ***
  0   -323.9027770990   0.000000000000 0.12932435  0.00381862  0.2555825 0.7000
  1   -323.9942468804  -0.091469781409 0.07750752  0.00240511  0.0775116 0.7000
                               ***Turning on DIIS***
  2   -324.0232473375  -0.029000457089 0.05694798  0.00312817  0.0272722 0.0000
  3   -324.0740845769  -0.050837239343 0.05756262  0.00170989  0.0426242 0.0000
  4   -324.0848173826  -0.010732805689 0.01443321  0.00053891  0.0254095 0.0000
                      *** Initiating the SOSCF procedure ***
                           *** Shutting down DIIS ***
                      *** Re-Reading the Fockian *** 
                      *** Removing any level shift *** 
ITER      Energy       Delta-E        Grad      Rot      Max-DP    RMS-DP
  5   -324.08628963  -0.0014722465  0.000823  0.000823  0.002682  0.000148
               *** Restarting incremental Fock matrix formation ***
  6   -324.08633990  -0.0000502696  0.000455  0.001919  0.002528  0.000110
  7   -324.08632338   0.0000165161  0.001386  0.002375  0.002141  0.000063
  8   -324.08634503  -0.0000216456  0.000112  0.000323  0.000871  0.000033
  9   -324.08634454   0.0000004838  0.000191  0.000196  0.000422  0.000013
 10   -324.08634561  -0.0000010665  0.000032  0.000193  0.000227  0.000009
                 **** Energy Check signals convergence ****
              ***Rediagonalizing the Fockian in SOSCF/NRSCF***

               *****************************************************
               *                     SUCCESS                       *
               *           SCF CONVERGED AFTER  11 CYCLES          *
               *****************************************************

Setting up the final grid:

General Integration Accuracy     IntAcc      ...  4.670
Radial Grid Type                 RadialGrid  ... Gauss-Chebyshev
Angular Grid (max. acc.)         AngularGrid ... Lebedev-302
Angular grid pruning method      GridPruning ... 3 (G Style)
Weight generation scheme         WeightScheme... Becke
Basis function cutoff            BFCut       ...    1.0000e-10
Integration weight cutoff        WCut        ...    1.0000e-14
Grids for H and He will be reduced by one unit

# of grid points (after initial pruning)     ...  67242 (   0.0 sec)
# of grid points (after weights+screening)   ...  61907 (   0.1 sec)
nearest neighbour list constructed           ...    0.0 sec
Grid point re-assignment to atoms done       ...    0.0 sec
Grid point division into batches done        ...    0.2 sec
Reduced shell lists constructed in    0.4 sec

Total number of grid points                  ...    61907
Total number of batches                      ...      973
Average number of points per batch           ...       63
Average number of grid points per atom       ...     4422
Average number of shells per batch           ...    47.72 (75.75%)
Average number of basis functions per batch  ...   100.83 (75.82%)
Average number of large shells per batch     ...    38.82 (81.34%)
Average number of large basis fcns per batch ...    80.68 (80.02%)
Maximum spatial batch extension              ...  14.16, 16.38, 17.31 au
Average spatial batch extension              ...   0.96,  0.95,  1.04 au

Final grid set up in    0.5 sec
Final integration                            ... done (   0.4 sec)
Change in XC energy                          ...     0.000234588
Integrated number of electrons               ...    52.000062842
Previous integrated no of electrons          ...    52.000061645

----------------
TOTAL SCF ENERGY
----------------

Total Energy       :         -324.08611099 Eh           -8818.83142 eV

Components:
Nuclear Repulsion  :          294.01694584 Eh            8000.60784 eV
Electronic Energy  :         -618.10305683 Eh          -16819.43926 eV

One Electron Energy:        -1021.74844878 Eh          -27803.18878 eV
Two Electron Energy:          403.64539195 Eh           10983.74952 eV

Virial components:
Potential Energy   :         -645.27578216 Eh          -17558.84671 eV
Kinetic Energy     :          321.18967117 Eh            8740.01529 eV
Virial Ratio       :            2.00901785


DFT components:
N(Alpha)           :       26.000031420774 electrons
N(Beta)            :       26.000031420774 electrons
N(Total)           :       52.000062841548 electrons
E(X)               :      -43.111712407785 Eh       
E(C)               :       -1.744649271910 Eh       
E(XC)              :      -44.856361679695 Eh       

---------------
SCF CONVERGENCE
---------------

  Last Energy change         ...    2.8470e-08  Tolerance :   1.0000e-06
  Last MAX-Density change    ...    1.1255e-04  Tolerance :   1.0000e-05
  Last RMS-Density change    ...    4.5536e-06  Tolerance :   1.0000e-06
  Last Orbital Gradient      ...    4.8796e-05  Tolerance :   5.0000e-05
  Last Orbital Rotation      ...    1.1274e-04  Tolerance :   5.0000e-05

             **** THE GBW FILE WAS UPDATED (4643.gbw) ****
             **** DENSITY FILE WAS UPDATED (4643.scfp.tmp) ****
             **** ENERGY FILE WAS UPDATED (4643.en.tmp) ****

                    ********************************
                    * MULLIKEN POPULATION ANALYSIS *
                    ********************************

-----------------------
MULLIKEN ATOMIC CHARGES
-----------------------
   0 C :   -0.025625
   1 C :   -0.225804
   2 C :    0.050383
   3 C :    0.153599
   4 N :   -0.187109
   5 C :    0.129094
   6 O :   -0.186248
   7 H :    0.014831
   8 H :    0.035080
   9 H :    0.040393
  10 H :    0.042054
  11 H :    0.024404
  12 H :    0.021808
  13 H :    0.113141
Sum of atomic charges:   -0.0000000

--------------------------------
MULLIKEN REDUCED ORBITAL CHARGES
--------------------------------
  0 C s       :     3.149035  s :     3.149035
      pz      :     0.966231  p :     2.853080
      px      :     1.014573
      py      :     0.872276
      dz2     :     0.001950  d :     0.023509
      dxz     :     0.004636
      dyz     :     0.000905
      dx2y2   :     0.006881
      dxy     :     0.009137
  1 C s       :     3.165511  s :     3.165511
      pz      :     1.014980  p :     3.021506
      px      :     0.973735
      py      :     1.032791
      dz2     :     0.003490  d :     0.038787
      dxz     :     0.006385
      dyz     :     0.005242
      dx2y2   :     0.009103
      dxy     :     0.014567
  2 C s       :     2.908691  s :     2.908691
      pz      :     1.020992  p :     3.009998
      px      :     0.948491
      py      :     1.040515
      dz2     :     0.004693  d :     0.030928
      dxz     :     0.005188
      dyz     :     0.007694
      dx2y2   :     0.006532
      dxy     :     0.006820
  3 C s       :     2.918429  s :     2.918429
      pz      :     1.030105  p :     2.881113
      px      :     1.045094
      py      :     0.805913
      dz2     :     0.006804  d :     0.046860
      dxz     :     0.007730
      dyz     :     0.011385
      dx2y2   :     0.013099
      dxy     :     0.007842
  4 N s       :     3.381894  s :     3.381894
      pz      :     1.591539  p :     3.785209
      px      :     1.128950
      py      :     1.064721
      dz2     :     0.002027  d :     0.020005
      dxz     :     0.002603
      dyz     :     0.003237
      dx2y2   :     0.005280
      dxy     :     0.006859
  5 C s       :     2.987282  s :     2.987282
      pz      :     0.889910  p :     2.767346
      px      :     0.950225
      py      :     0.927211
      dz2     :     0.007509  d :     0.116278
      dxz     :     0.012488
      dyz     :     0.024620
      dx2y2   :     0.031238
      dxy     :     0.040423
  6 O s       :     3.703914  s :     3.703914
      pz      :     1.446853  p :     4.464735
      px      :     1.665924
      py      :     1.351957
      dz2     :     0.001985  d :     0.017600
      dxz     :     0.000428
      dyz     :     0.004953
      dx2y2   :     0.005565
      dxy     :     0.004670
  7 H s       :     0.960956  s :     0.960956
      pz      :     0.005675  p :     0.024213
      px      :     0.007988
      py      :     0.010550
  8 H s       :     0.940291  s :     0.940291
      pz      :     0.004940  p :     0.024629
      px      :     0.005977
      py      :     0.013712
  9 H s       :     0.936464  s :     0.936464
      pz      :     0.011581  p :     0.023143
      px      :     0.004554
      py      :     0.007008
 10 H s       :     0.934757  s :     0.934757
      pz      :     0.009208  p :     0.023190
      px      :     0.005932
      py      :     0.008050
 11 H s       :     0.953862  s :     0.953862
      pz      :     0.009007  p :     0.021733
      px      :     0.008955
      py      :     0.003772
 12 H s       :     0.956552  s :     0.956552
      pz      :     0.012165  p :     0.021641
      px      :     0.005068
      py      :     0.004408
 13 H s       :     0.843912  s :     0.843912
      pz      :     0.012784  p :     0.042947
      px      :     0.016505
      py      :     0.013658


                     *******************************
                     * LOEWDIN POPULATION ANALYSIS *
                     *******************************

----------------------
LOEWDIN ATOMIC CHARGES
----------------------
   0 C :   -0.023424
   1 C :   -0.072051
   2 C :   -0.037565
   3 C :    0.034774
   4 N :    0.005775
   5 C :    0.018427
   6 O :   -0.187844
   7 H :    0.025520
   8 H :    0.034678
   9 H :    0.042878
  10 H :    0.043074
  11 H :    0.020974
  12 H :    0.020496
  13 H :    0.074290

-------------------------------
LOEWDIN REDUCED ORBITAL CHARGES
-------------------------------
  0 C s       :     2.880239  s :     2.880239
      pz      :     0.961959  p :     3.074855
      px      :     1.064831
      py      :     1.048065
      dz2     :     0.005408  d :     0.068330
      dxz     :     0.010979
      dyz     :     0.002629
      dx2y2   :     0.020968
      dxy     :     0.028346
  1 C s       :     2.877984  s :     2.877984
      pz      :     0.981933  p :     3.088427
      px      :     1.081703
      py      :     1.024791
      dz2     :     0.008920  d :     0.105640
      dxz     :     0.015129
      dyz     :     0.010985
      dx2y2   :     0.026537
      dxy     :     0.044069
  2 C s       :     2.833819  s :     2.833819
      pz      :     1.071785  p :     3.120599
      px      :     1.007553
      py      :     1.041261
      dz2     :     0.012264  d :     0.083147
      dxz     :     0.011786
      dyz     :     0.021484
      dx2y2   :     0.017290
      dxy     :     0.020322
  3 C s       :     2.831714  s :     2.831714
      pz      :     1.077970  p :     3.018499
      px      :     1.046354
      py      :     0.894175
      dz2     :     0.017055  d :     0.115013
      dxz     :     0.020480
      dyz     :     0.026822
      dx2y2   :     0.033798
      dxy     :     0.016858
  4 N s       :     3.058550  s :     3.058550
      pz      :     1.533463  p :     3.881608
      px      :     1.200584
      py      :     1.147561
      dz2     :     0.004303  d :     0.054067
      dxz     :     0.005912
      dyz     :     0.006315
      dx2y2   :     0.017723
      dxy     :     0.019814
  5 C s       :     2.830402  s :     2.830402
      pz      :     0.880079  p :     2.875932
      px      :     0.960197
      py      :     1.035656
      dz2     :     0.018089  d :     0.275239
      dxz     :     0.026705
      dyz     :     0.050517
      dx2y2   :     0.077542
      dxy     :     0.102386
  6 O s       :     3.541880  s :     3.541880
      pz      :     1.451843  p :     4.614913
      px      :     1.691539
      py      :     1.471531
      dz2     :     0.004300  d :     0.031051
      dxz     :     0.000576
      dyz     :     0.006498
      dx2y2   :     0.011464
      dxy     :     0.008212
  7 H s       :     0.904476  s :     0.904476
      pz      :     0.016272  p :     0.070004
      px      :     0.022084
      py      :     0.031648
  8 H s       :     0.892905  s :     0.892905
      pz      :     0.014741  p :     0.072417
      px      :     0.015895
      py      :     0.041781
  9 H s       :     0.888263  s :     0.888263
      pz      :     0.034186  p :     0.068860
      px      :     0.013539
      py      :     0.021135
 10 H s       :     0.888000  s :     0.888000
      pz      :     0.026476  p :     0.068926
      px      :     0.017952
      py      :     0.024499
 11 H s       :     0.912236  s :     0.912236
      pz      :     0.026195  p :     0.066790
      px      :     0.027890
      py      :     0.012706
 12 H s       :     0.912750  s :     0.912750
      pz      :     0.036593  p :     0.066755
      px      :     0.015275
      py      :     0.014887
 13 H s       :     0.799090  s :     0.799090
      pz      :     0.041031  p :     0.126620
      px      :     0.047636
      py      :     0.037953


                      *****************************
                      * MAYER POPULATION ANALYSIS *
                      *****************************

  NA   - Mulliken gross atomic population
  ZA   - Total nuclear charge
  QA   - Mulliken gross atomic charge
  VA   - Mayer's total valence
  BVA  - Mayer's bonded valence
  FA   - Mayer's free valence

  ATOM       NA         ZA         QA         VA         BVA        FA
  0 C      6.0256     6.0000    -0.0256     3.9782     3.9782     0.0000
  1 C      6.2258     6.0000    -0.2258     4.1558     4.1558     0.0000
  2 C      5.9496     6.0000     0.0504     3.9978     3.9978    -0.0000
  3 C      5.8464     6.0000     0.1536     4.0200     4.0200    -0.0000
  4 N      7.1871     7.0000    -0.1871     3.2977     3.2977    -0.0000
  5 C      5.8709     6.0000     0.1291     4.2508     4.2508     0.0000
  6 O      8.1862     8.0000    -0.1862     2.3762     2.3762     0.0000
  7 H      0.9852     1.0000     0.0148     0.9777     0.9777     0.0000
  8 H      0.9649     1.0000     0.0351     0.9963     0.9963     0.0000
  9 H      0.9596     1.0000     0.0404     0.9822     0.9822    -0.0000
 10 H      0.9579     1.0000     0.0421     0.9823     0.9823    -0.0000
 11 H      0.9756     1.0000     0.0244     0.9744     0.9744    -0.0000
 12 H      0.9782     1.0000     0.0218     0.9741     0.9741     0.0000
 13 H      0.8869     1.0000     0.1131     1.0175     1.0175    -0.0000

  Mayer bond orders larger than 0.1
B(  0-C ,  1-C ) :   2.0227 B(  0-C ,  7-H ) :   0.9375 B(  0-C ,  8-H ) :   0.9108 
B(  1-C ,  2-C ) :   1.0754 B(  1-C ,  5-C ) :   0.8961 B(  2-C ,  3-C ) :   1.0903 
B(  2-C ,  9-H ) :   0.9115 B(  2-C , 10-H ) :   0.9118 B(  3-C ,  4-N ) :   1.0225 
B(  3-C , 11-H ) :   0.9352 B(  3-C , 12-H ) :   0.9350 B(  4-N ,  5-C ) :   1.1646 
B(  4-N ,  6-O ) :   0.1021 B(  4-N , 13-H ) :   0.9250 B(  5-C ,  6-O ) :   2.1537 



 *********************************** NBO 6.0 ***********************************
             N A T U R A L   A T O M I C   O R B I T A L   A N D
          N A T U R A L   B O N D   O R B I T A L   A N A L Y S I S
 ***************************** Kiya KiyaLu (100703) ****************************
  (c) Copyright 1996-2015 Board of Regents of the University of Wisconsin System
      on behalf of the Theoretical Chemistry Institute.  All rights reserved.

          Cite this program as:

          NBO 6.0.  E. D. Glendening, J. K. Badenhoop, A. E. Reed,
          J. E. Carpenter, J. A. Bohmann, C. M. Morales, C. R. Landis,
          and F. Weinhold (Theoretical Chemistry Institute, University
          of Wisconsin, Madison, WI, 2013); http://nbo6.chem.wisc.edu/

       /NPA    / : Natural Population Analysis
       /NBO    / : Natural Bond Orbital Analysis
       /AONBO  / : Write the AO to NBO transformation to lfn77
       /FILE   / : Set to 4643

 Filename set to 4643

 Job title:  *** NBO job generated by orca_scf

 Warning: MOs are non-orthogonal; program will continue

 Warning: -2308.32974 electrons reside outside the linearly independent MO space


 NATURAL POPULATIONS:  Natural atomic orbital occupancies

  NAO Atom No lang   Type(AO)    Occupancy      Energy
 -------------------------------------------------------
   1    C  1  s      Cor( 1s)     1.99885      -9.76664
   2    C  1  s      Val( 2s)     1.03342      -0.16326
   3    C  1  s      Ryd( 3s)     0.00057       0.55538
   4    C  1  px     Val( 2p)     1.12261      -0.03816
   5    C  1  px     Ryd( 3p)     0.00147       0.49729
   6    C  1  py     Val( 2p)     1.20939      -0.03518
   7    C  1  py     Ryd( 3p)     0.00648       0.86734
   8    C  1  pz     Val( 2p)     0.97589      -0.10677
   9    C  1  pz     Ryd( 3p)     0.00116       0.49348
  10    C  1  dxy    Ryd( 3d)     0.00057       2.39456
  11    C  1  dxz    Ryd( 3d)     0.00059       2.00398
  12    C  1  dyz    Ryd( 3d)     0.00008       1.86616
  13    C  1  dx2y2  Ryd( 3d)     0.00070       2.32729
  14    C  1  dz2    Ryd( 3d)     0.00048       2.08685

  15    C  2  s      Cor( 1s)     1.99884      -9.77471
  16    C  2  s      Val( 2s)     0.90061      -0.12724
  17    C  2  s      Ryd( 3s)     0.00377       0.52141
  18    C  2  px     Val( 2p)     1.12906      -0.07234
  19    C  2  px     Ryd( 3p)     0.00586       0.84050
  20    C  2  py     Val( 2p)     1.06082      -0.06167
  21    C  2  py     Ryd( 3p)     0.00329       0.92664
  22    C  2  pz     Val( 2p)     1.03428      -0.10370
  23    C  2  pz     Ryd( 3p)     0.00195       0.61864
  24    C  2  dxy    Ryd( 3d)     0.00093       2.32511
  25    C  2  dxz    Ryd( 3d)     0.00064       2.01026
  26    C  2  dyz    Ryd( 3d)     0.00046       1.88421
  27    C  2  dx2y2  Ryd( 3d)     0.00070       2.27725
  28    C  2  dz2    Ryd( 3d)     0.00047       2.04831

  29    C  3  s      Cor( 1s)     1.99906      -9.79185
  30    C  3  s      Val( 2s)     1.01963      -0.21046
  31    C  3  s      Ryd( 3s)     0.00087       0.92764
  32    C  3  px     Val( 2p)     1.05807      -0.09179
  33    C  3  px     Ryd( 3p)     0.00223       0.54906
  34    C  3  py     Val( 2p)     1.15718      -0.08041
  35    C  3  py     Ryd( 3p)     0.00214       0.48871
  36    C  3  pz     Val( 2p)     1.23105      -0.08420
  37    C  3  pz     Ryd( 3p)     0.00264       0.69351
  38    C  3  dxy    Ryd( 3d)     0.00058       2.17600
  39    C  3  dxz    Ryd( 3d)     0.00052       2.05745
  40    C  3  dyz    Ryd( 3d)     0.00067       2.33211
  41    C  3  dx2y2  Ryd( 3d)     0.00052       2.09922
  42    C  3  dz2    Ryd( 3d)     0.00051       2.17290

  43    C  4  s      Cor( 1s)     1.99919      -9.83074
  44    C  4  s      Val( 2s)     1.00056      -0.21351
  45    C  4  s      Ryd( 3s)     0.00082       0.82705
  46    C  4  px     Val( 2p)     1.12699      -0.09139
  47    C  4  px     Ryd( 3p)     0.00250       0.48280
  48    C  4  py     Val( 2p)     0.86037      -0.07763
  49    C  4  py     Ryd( 3p)     0.00253       0.45338
  50    C  4  pz     Val( 2p)     1.21534      -0.08807
  51    C  4  pz     Ryd( 3p)     0.00248       0.65550
  52    C  4  dxy    Ryd( 3d)     0.00063       2.08209
  53    C  4  dxz    Ryd( 3d)     0.00069       2.23916
  54    C  4  dyz    Ryd( 3d)     0.00110       2.09218
  55    C  4  dx2y2  Ryd( 3d)     0.00119       2.17924
  56    C  4  dz2    Ryd( 3d)     0.00071       2.19072

  57    N  5  s      Cor( 1s)     1.99914     -13.87226
  58    N  5  s      Val( 2s)     1.25522      -0.47206
  59    N  5  s      Ryd( 3s)     0.00138       1.06205
  60    N  5  px     Val( 2p)     1.40030      -0.22619
  61    N  5  px     Ryd( 3p)     0.00189       1.03763
  62    N  5  py     Val( 2p)     1.32080      -0.22252
  63    N  5  py     Ryd( 3p)     0.00223       1.21872
  64    N  5  pz     Val( 2p)     1.64693      -0.21890
  65    N  5  pz     Ryd( 3p)     0.00271       0.83081
  66    N  5  dxy    Ryd( 3d)     0.00080       2.70395
  67    N  5  dxz    Ryd( 3d)     0.00046       2.34572
  68    N  5  dyz    Ryd( 3d)     0.00035       2.28901
  69    N  5  dx2y2  Ryd( 3d)     0.00063       2.65012
  70    N  5  dz2    Ryd( 3d)     0.00057       2.43578

  71    C  6  s      Cor( 1s)     1.99907      -9.85638
  72    C  6  s      Val( 2s)     0.73873      -0.08315
  73    C  6  s      Ryd( 3s)     0.00561       0.49706
  74    C  6  px     Val( 2p)     0.86868      -0.01647
  75    C  6  px     Ryd( 3p)     0.00811       0.63169
  76    C  6  py     Val( 2p)     0.84425       0.01309
  77    C  6  py     Ryd( 3p)     0.02044       0.57683
  78    C  6  pz     Val( 2p)     0.85777      -0.10517
  79    C  6  pz     Ryd( 3p)     0.00206       0.51969
  80    C  6  dxy    Ryd( 3d)     0.00349       2.37281
  81    C  6  dxz    Ryd( 3d)     0.00136       1.91768
  82    C  6  dyz    Ryd( 3d)     0.00294       1.97867
  83    C  6  dx2y2  Ryd( 3d)     0.00258       2.36966
  84    C  6  dz2    Ryd( 3d)     0.00083       2.05480

  85    O  7  s      Cor( 1s)     1.99973     -18.46623
  86    O  7  s      Val( 2s)     1.68340      -0.75711
  87    O  7  s      Ryd( 3s)     0.00101       1.58289
  88    O  7  px     Val( 2p)     1.78381      -0.18622
  89    O  7  px     Ryd( 3p)     0.00198       1.17013
  90    O  7  py     Val( 2p)     1.61182      -0.24253
  91    O  7  py     Ryd( 3p)     0.00079       1.05298
  92    O  7  pz     Val( 2p)     1.50049      -0.19226
  93    O  7  pz     Ryd( 3p)     0.00099       1.05373
  94    O  7  dxy    Ryd( 3d)     0.00215       2.91336
  95    O  7  dxz    Ryd( 3d)     0.00017       2.59852
  96    O  7  dyz    Ryd( 3d)     0.00203       2.74994
  97    O  7  dx2y2  Ryd( 3d)     0.00213       3.05130
  98    O  7  dz2    Ryd( 3d)     0.00071       2.76701

  99    H  8  s      Val( 1s)     0.79086       0.05836
 100    H  8  s      Ryd( 2s)     0.00157       0.31938
 101    H  8  px     Ryd( 2p)     0.00036       1.95810
 102    H  8  py     Ryd( 2p)     0.00057       2.12534
 103    H  8  pz     Ryd( 2p)     0.00028       1.63482

 104    H  9  s      Val( 1s)     0.76951       0.07604
 105    H  9  s      Ryd( 2s)     0.00376       0.34047
 106    H  9  px     Ryd( 2p)     0.00021       1.84956
 107    H  9  py     Ryd( 2p)     0.00085       2.24830
 108    H  9  pz     Ryd( 2p)     0.00020       1.60224

 109    H 10  s      Val( 1s)     0.74851       0.06239
 110    H 10  s      Ryd( 2s)     0.00201       0.31542
 111    H 10  px     Ryd( 2p)     0.00013       1.70801
 112    H 10  py     Ryd( 2p)     0.00028       1.89918
 113    H 10  pz     Ryd( 2p)     0.00070       2.13585

 114    H 11  s      Val( 1s)     0.74840       0.06266
 115    H 11  s      Ryd( 2s)     0.00201       0.31598
 116    H 11  px     Ryd( 2p)     0.00026       1.78464
 117    H 11  py     Ryd( 2p)     0.00036       1.96351
 118    H 11  pz     Ryd( 2p)     0.00047       2.01302

 119    H 12  s      Val( 1s)     0.78158       0.05230
 120    H 12  s      Ryd( 2s)     0.00241       0.30015
 121    H 12  px     Ryd( 2p)     0.00049       1.99770
 122    H 12  py     Ryd( 2p)     0.00015       1.73738
 123    H 12  pz     Ryd( 2p)     0.00047       1.96300

 124    H 13  s      Val( 1s)     0.78181       0.05203
 125    H 13  s      Ryd( 2s)     0.00245       0.29859
 126    H 13  px     Ryd( 2p)     0.00014       1.76703
 127    H 13  py     Ryd( 2p)     0.00020       1.76866
 128    H 13  pz     Ryd( 2p)     0.00080       2.14462

 129    H 14  s      Val( 1s)     0.58620       0.08079
 130    H 14  s      Ryd( 2s)     0.00481       0.35633
 131    H 14  px     Ryd( 2p)     0.00077       2.11884
 132    H 14  py     Ryd( 2p)     0.00066       2.04514
 133    H 14  pz     Ryd( 2p)     0.00051       1.68435

   1 low occupancy (<1.9990e) core orbital  found on  C  1
   1 low occupancy (<1.9990e) core orbital  found on  C  2


 Summary of Natural Population Analysis:

                                     Natural Population
             Natural    ---------------------------------------------
  Atom No    Charge        Core      Valence    Rydberg      Total
 --------------------------------------------------------------------
    C  1   -0.35226      1.99885     4.34131    0.01209     6.35226
    C  2   -0.14168      1.99884     4.12477    0.01807     6.14168
    C  3   -0.47566      1.99906     4.46592    0.01068     6.47566
    C  4   -0.21512      1.99919     4.20327    0.01265     6.21512
    N  5   -0.63340      1.99914     5.62325    0.01101     7.63340
    C  6    0.64407      1.99907     3.30943    0.04743     5.35593
    O  7   -0.59120      1.99973     6.57951    0.01196     8.59120
    H  8    0.20636      0.00000     0.79086    0.00278     0.79364
    H  9    0.22547      0.00000     0.76951    0.00502     0.77453
    H 10    0.24837      0.00000     0.74851    0.00312     0.75163
    H 11    0.24850      0.00000     0.74840    0.00309     0.75150
    H 12    0.21489      0.00000     0.78158    0.00353     0.78511
    H 13    0.21460      0.00000     0.78181    0.00359     0.78540
    H 14    0.40706      0.00000     0.58620    0.00674     0.59294
 ====================================================================
 * Total *  0.00000     13.99389    37.85436    0.15175    52.00000

                                 Natural Population
 ---------------------------------------------------------
   Core                      13.99389 ( 99.9564% of   14)
   Valence                   37.85436 ( 99.6167% of   38)
   Natural Minimal Basis     51.84825 ( 99.7082% of   52)
   Natural Rydberg Basis      0.15175 (  0.2918% of   52)
 ---------------------------------------------------------

    Atom No         Natural Electron Configuration
 ----------------------------------------------------------------------------
      C  1      [core]2s( 1.03)2p( 3.31)3p( 0.01)
      C  2      [core]2s( 0.90)2p( 3.22)3p( 0.01)
      C  3      [core]2s( 1.02)2p( 3.45)3p( 0.01)
      C  4      [core]2s( 1.00)2p( 3.20)3p( 0.01)
      N  5      [core]2s( 1.26)2p( 4.37)3p( 0.01)
      C  6      [core]2s( 0.74)2p( 2.57)3s( 0.01)3p( 0.03)3d( 0.01)
      O  7      [core]2s( 1.68)2p( 4.90)3d( 0.01)
      H  8            1s( 0.79)
      H  9            1s( 0.77)
      H 10            1s( 0.75)
      H 11            1s( 0.75)
      H 12            1s( 0.78)
      H 13            1s( 0.78)
      H 14            1s( 0.59)


 NATURAL BOND ORBITAL ANALYSIS:

                            Occupancies       Lewis Structure    Low   High
         Max    Occ     -------------------  -----------------   occ   occ
  Cycle  Ctr   Thresh    Lewis   non-Lewis     CR  BD  nC  LP    (L)   (NL)
 ============================================================================
    1     2     1.90    51.07632   0.92368      7  16   0   3     2      1
    2     2     1.89    51.07632   0.92368      7  16   0   3     2      1
    3     2     1.83    51.09096   0.90904      7  16   0   3     1      1
    4     2     1.74    51.09096   0.90904      7  16   0   3     1      1
    5     2     1.73    51.09096   0.90904      7  16   0   3     1      1
    6     2     1.67    51.09096   0.90904      7  16   0   3     0      1
    7     2     1.53    51.09096   0.90904      7  16   0   3     0      1
    8     2     1.83    51.09096   0.90904      7  16   0   3     1      1
 ----------------------------------------------------------------------------

 Strongly delocalized structure accepted

 -------------------------------------------------------
   Core                     13.99389 ( 99.956% of  14)
   Valence Lewis            37.09707 ( 97.624% of  38)
  ==================      =============================
   Total Lewis              51.09096 ( 98.252% of  52)
  -----------------------------------------------------
   Valence non-Lewis         0.79792 (  1.534% of  52)
   Rydberg non-Lewis         0.11111 (  0.214% of  52)
  ==================      =============================
   Total non-Lewis           0.90904 (  1.748% of  52)
 -------------------------------------------------------


     (Occupancy)   Bond orbital / Coefficients / Hybrids
 ------------------ Lewis ------------------------------------------------------
   1. (1.99885) CR ( 1) C  1            s(100.00%)
                                         1.0000  0.0000  0.0000  0.0000  0.0000
                                         0.0000  0.0000  0.0000  0.0000  0.0000
                                         0.0000  0.0000  0.0000  0.0000
   2. (1.99884) CR ( 1) C  2            s(100.00%)
                                         1.0000  0.0000  0.0000  0.0000  0.0000
                                         0.0000  0.0000  0.0000  0.0000  0.0000
                                         0.0000  0.0000  0.0000  0.0000
   3. (1.99906) CR ( 1) C  3            s(100.00%)
                                         1.0000  0.0000  0.0000  0.0000  0.0000
                                         0.0000  0.0000  0.0000  0.0000  0.0000
                                         0.0000  0.0000  0.0000  0.0000
   4. (1.99919) CR ( 1) C  4            s(100.00%)
                                         1.0000  0.0000  0.0000  0.0000  0.0000
                                         0.0000  0.0000  0.0000  0.0000  0.0000
                                         0.0000  0.0000  0.0000  0.0000
   5. (1.99914) CR ( 1) N  5            s(100.00%)
                                         1.0000  0.0000  0.0000  0.0000  0.0000
                                         0.0000  0.0000  0.0000  0.0000  0.0000
                                         0.0000  0.0000  0.0000  0.0000
   6. (1.99907) CR ( 1) C  6            s(100.00%)
                                         1.0000  0.0000  0.0000  0.0000  0.0000
                                         0.0000  0.0000  0.0000  0.0000  0.0000
                                         0.0000  0.0000  0.0000  0.0000
   7. (1.99973) CR ( 1) O  7            s(100.00%)
                                         1.0000  0.0000  0.0000  0.0000  0.0000
                                         0.0000  0.0000  0.0000  0.0000  0.0000
                                         0.0000  0.0000  0.0000  0.0000
   8. (1.67176) LP ( 1) N  5            s(  0.00%)p 1.00( 99.99%)d 0.00(  0.01%)
                                         0.0000  0.0003  0.0017 -0.2846 -0.0030
                                         0.0665  0.0010 -0.9561 -0.0174 -0.0008
                                         0.0089 -0.0003  0.0029 -0.0051
   9. (1.97527) LP ( 1) O  7            s( 56.42%)p 0.77( 43.55%)d 0.00(  0.03%)
                                         0.0000  0.7510 -0.0114 -0.1692  0.0013
                                        -0.6379  0.0040  0.0058 -0.0001 -0.0072
                                         0.0011  0.0001  0.0116  0.0097
  10. (1.83416) LP ( 2) O  7            s(  0.01%)p 1.00( 99.88%)d 0.00(  0.11%)
                                         0.0000  0.0097 -0.0012 -0.9200  0.0125
                                         0.2581 -0.0036  0.2925 -0.0039 -0.0273
                                         0.0032  0.0094 -0.0169 -0.0002
  11. (1.98129) BD ( 1) C  1- C  2
               ( 48.02%)   0.6930* C  1 s( 41.06%)p 1.43( 58.87%)d 0.00(  0.07%)
                                         0.0000  0.6407  0.0098  0.7313  0.0095
                                         0.0916  0.0088 -0.2128 -0.0004  0.0047
                                        -0.0128 -0.0009  0.0183 -0.0127
               ( 51.98%)   0.7210* C  2 s( 39.82%)p 1.51( 60.15%)d 0.00(  0.04%)
                                         0.0000  0.6306  0.0228 -0.7427 -0.0247
                                        -0.0497  0.0013  0.2162  0.0078  0.0032
                                        -0.0096 -0.0004  0.0132 -0.0100
  12. (1.91799) BD ( 2) C  1- C  2
               ( 48.28%)   0.6949* C  1 s(  0.00%)p 1.00( 99.93%)d 0.00(  0.06%)
                                         0.0000  0.0013  0.0051  0.2853 -0.0001
                                        -0.0668  0.0009  0.9557 -0.0149 -0.0008
                                         0.0208  0.0033  0.0072 -0.0114
               ( 51.72%)   0.7191* C  2 s(  0.00%)p 1.00( 99.97%)d 0.00(  0.03%)
                                         0.0000  0.0013 -0.0002  0.2838  0.0039
                                        -0.0670  0.0001  0.9563 -0.0105 -0.0007
                                        -0.0147 -0.0067 -0.0050  0.0075
  13. (1.98363) BD ( 1) C  1- H  8
               ( 60.38%)   0.7771* C  1 s( 29.45%)p 2.39( 70.51%)d 0.00(  0.04%)
                                         0.0000  0.5427 -0.0043 -0.4996 -0.0179
                                         0.6462 -0.0111  0.1937  0.0051 -0.0142
                                        -0.0040  0.0058 -0.0071 -0.0090
               ( 39.62%)   0.6294* H  8 s( 99.91%)p 0.00(  0.09%)
                                         0.9995 -0.0016  0.0177 -0.0237 -0.0068
  14. (1.97807) BD ( 1) C  1- H  9
               ( 61.48%)   0.7841* C  1 s( 29.43%)p 2.40( 70.53%)d 0.00(  0.03%)
                                         0.0000  0.5425 -0.0035 -0.3645 -0.0148
                                        -0.7544  0.0065  0.0554  0.0044  0.0091
                                        -0.0010 -0.0006 -0.0122 -0.0099
               ( 38.52%)   0.6207* H  9 s( 99.89%)p 0.00(  0.11%)
                                         0.9995 -0.0050  0.0109  0.0307 -0.0011
  15. (1.97032) BD ( 1) C  2- C  3
               ( 49.68%)   0.7048* C  2 s( 31.48%)p 2.18( 68.49%)d 0.00(  0.04%)
                                         0.0000  0.5610  0.0010  0.4088 -0.0269
                                         0.7154  0.0047 -0.0717  0.0073  0.0135
                                        -0.0044 -0.0022 -0.0037 -0.0119
               ( 50.32%)   0.7094* C  3 s( 28.54%)p 2.50( 71.43%)d 0.00(  0.04%)
                                         0.0000  0.5342 -0.0039 -0.5045 -0.0115
                                        -0.6700  0.0119  0.1029  0.0039  0.0134
                                        -0.0017 -0.0021 -0.0091 -0.0103
  16. (1.96420) BD ( 1) C  2- C  6
               ( 52.37%)   0.7237* C  2 s( 28.54%)p 2.50( 71.42%)d 0.00(  0.04%)
                                         0.0000  0.5340 -0.0166  0.4472 -0.0218
                                        -0.6933 -0.0038 -0.1819  0.0065 -0.0143
                                        -0.0057  0.0060 -0.0044 -0.0105
               ( 47.63%)   0.6901* C  6 s( 35.69%)p 1.80( 64.26%)d 0.00(  0.05%)
                                         0.0000  0.5969 -0.0241 -0.5192 -0.0040
                                         0.5779 -0.0314  0.1954 -0.0016 -0.0156
                                        -0.0032  0.0065 -0.0103 -0.0091
  17. (1.97739) BD ( 1) C  3- C  4
               ( 49.92%)   0.7065* C  3 s( 26.00%)p 2.84( 73.96%)d 0.00(  0.04%)
                                         0.0000  0.5098  0.0074  0.7899  0.0106
                                        -0.2271  0.0214 -0.2519 -0.0017 -0.0127
                                        -0.0092  0.0044  0.0093 -0.0090
               ( 50.08%)   0.7077* C  4 s( 28.15%)p 2.55( 71.81%)d 0.00(  0.04%)
                                         0.0000  0.5306 -0.0025 -0.7461  0.0168
                                         0.3174  0.0189  0.2451 -0.0040 -0.0059
                                        -0.0097  0.0019  0.0143 -0.0081
  18. (1.96899) BD ( 1) C  3- H 10
               ( 62.41%)   0.7900* C  3 s( 22.70%)p 3.40( 77.27%)d 0.00(  0.03%)
                                         0.0000  0.4764 -0.0010  0.0617 -0.0054
                                         0.4490  0.0091  0.7530 -0.0090  0.0013
                                         0.0023  0.0115 -0.0032  0.0122
               ( 37.59%)   0.6131* H 10 s( 99.89%)p 0.00(  0.11%)
                                         0.9995 -0.0027 -0.0012 -0.0166 -0.0281
  19. (1.96890) BD ( 1) C  3- H 11
               ( 62.41%)   0.7900* C  3 s( 22.71%)p 3.40( 77.26%)d 0.00(  0.03%)
                                         0.0000  0.4766 -0.0010 -0.3416  0.0009
                                         0.5454  0.0070 -0.5985  0.0117 -0.0064
                                         0.0091 -0.0123 -0.0025  0.0052
               ( 37.59%)   0.6131* H 11 s( 99.90%)p 0.00(  0.10%)
                                         0.9995 -0.0027  0.0133 -0.0198  0.0214
  20. (1.98716) BD ( 1) C  4- N  5
               ( 37.89%)   0.6156* C  4 s( 23.18%)p 3.31( 76.69%)d 0.01(  0.13%)
                                         0.0000  0.4812  0.0171 -0.0450  0.0233
                                        -0.8723 -0.0349 -0.0467 -0.0093  0.0061
                                        -0.0007  0.0025 -0.0297 -0.0190
               ( 62.11%)   0.7881* N  5 s( 34.62%)p 1.89( 65.35%)d 0.00(  0.04%)
                                         0.0000  0.5883  0.0055  0.1482 -0.0297
                                         0.7940  0.0025  0.0112  0.0082  0.0014
                                        -0.0029  0.0021 -0.0138 -0.0131
  21. (1.98251) BD ( 1) C  4- H 12
               ( 61.25%)   0.7826* C  4 s( 24.32%)p 3.11( 75.65%)d 0.00(  0.04%)
                                         0.0000  0.4931 -0.0038  0.6258 -0.0006
                                         0.2091  0.0011  0.5665 -0.0153  0.0037
                                         0.0155  0.0046  0.0080  0.0039
               ( 38.75%)   0.6225* H 12 s( 99.89%)p 0.00(  0.11%)
                                         0.9995 -0.0052 -0.0231 -0.0090 -0.0211
  22. (1.98258) BD ( 1) C  4- H 13
               ( 61.24%)   0.7826* C  4 s( 24.31%)p 3.11( 75.65%)d 0.00(  0.03%)
                                         0.0000  0.4931 -0.0034  0.2214  0.0082
                                         0.3023 -0.0004 -0.7848  0.0130  0.0014
                                        -0.0067 -0.0089 -0.0002  0.0146
               ( 38.76%)   0.6225* H 13 s( 99.89%)p 0.00(  0.11%)
                                         0.9994 -0.0053 -0.0082 -0.0128  0.0296
  23. (1.98857) BD ( 1) N  5- C  6
               ( 63.56%)   0.7972* N  5 s( 37.78%)p 1.65( 62.18%)d 0.00(  0.04%)
                                         0.0000  0.6146 -0.0019 -0.6923 -0.0024
                                        -0.3291  0.0257  0.1833  0.0025  0.0095
                                        -0.0094 -0.0019  0.0104 -0.0121
               ( 36.44%)   0.6037* C  6 s( 30.26%)p 2.30( 69.60%)d 0.00(  0.14%)
                                         0.0000  0.5500  0.0091  0.7776  0.0353
                                         0.2037 -0.0304 -0.2178 -0.0127  0.0200
                                        -0.0148 -0.0052  0.0222 -0.0163
  24. (1.98678) BD ( 1) N  5- H 14
               ( 71.16%)   0.8436* N  5 s( 27.45%)p 2.64( 72.52%)d 0.00(  0.03%)
                                         0.0000  0.5239  0.0036  0.6458 -0.0113
                                        -0.5062  0.0056 -0.2274  0.0048 -0.0134
                                        -0.0065  0.0049  0.0018 -0.0087
               ( 28.84%)   0.5370* H 14 s( 99.78%)p 0.00(  0.22%)
                                         0.9989 -0.0085 -0.0325  0.0308  0.0121
  25. (1.99262) BD ( 1) C  6- O  7
               ( 34.63%)   0.5885* C  6 s( 33.56%)p 1.97( 66.27%)d 0.01(  0.17%)
                                         0.0000  0.5784  0.0324 -0.2044 -0.0039
                                        -0.7855 -0.0615  0.0057 -0.0029  0.0155
                                        -0.0006  0.0002 -0.0314 -0.0214
               ( 65.37%)   0.8085* O  7 s( 43.57%)p 1.29( 56.26%)d 0.00(  0.17%)
                                         0.0000  0.6598  0.0201  0.2056  0.0067
                                         0.7209  0.0205 -0.0113 -0.0006  0.0197
                                         0.0005 -0.0013 -0.0310 -0.0197
  26. (1.98488) BD ( 2) C  6- O  7
               ( 31.20%)   0.5585* C  6 s(  0.00%)p 1.00( 99.72%)d 0.00(  0.28%)
                                         0.0000 -0.0001  0.0010 -0.2846  0.0071
                                         0.0671 -0.0017 -0.9542  0.0343  0.0139
                                         0.0130  0.0492  0.0075 -0.0008
               ( 68.80%)   0.8295* O  7 s(  0.00%)p 1.00( 99.84%)d 0.00(  0.16%)
                                         0.0000 -0.0003 -0.0001 -0.2850 -0.0029
                                         0.0665  0.0006 -0.9553 -0.0124 -0.0101
                                        -0.0102 -0.0364 -0.0056  0.0009
 ---------------- non-Lewis ----------------------------------------------------
  27. (0.01603) BD*( 1) C  1- C  2
               ( 51.98%)   0.7210* C  1 s( 41.06%)p 1.43( 58.87%)d 0.00(  0.07%)
                                         0.0000  0.6407  0.0098  0.7313  0.0095
                                         0.0916  0.0088 -0.2128 -0.0004  0.0047
                                        -0.0128 -0.0009  0.0183 -0.0127
               ( 48.02%)  -0.6930* C  2 s( 39.82%)p 1.51( 60.15%)d 0.00(  0.04%)
                                         0.0000  0.6306  0.0228 -0.7427 -0.0247
                                        -0.0497  0.0013  0.2162  0.0078  0.0032
                                        -0.0096 -0.0004  0.0132 -0.0100
  28. (0.06976) BD*( 2) C  1- C  2
               ( 51.72%)   0.7191* C  1 s(  0.00%)p 1.00( 99.93%)d 0.00(  0.06%)
                                         0.0000  0.0013  0.0051  0.2853 -0.0001
                                        -0.0668  0.0009  0.9557 -0.0149 -0.0008
                                         0.0208  0.0033  0.0072 -0.0114
               ( 48.28%)  -0.6949* C  2 s(  0.00%)p 1.00( 99.97%)d 0.00(  0.03%)
                                         0.0000  0.0013 -0.0002  0.2838  0.0039
                                        -0.0670  0.0001  0.9563 -0.0105 -0.0007
                                        -0.0147 -0.0067 -0.0050  0.0075
  29. (0.00954) BD*( 1) C  1- H  8
               ( 39.62%)   0.6294* C  1 s( 29.45%)p 2.39( 70.51%)d 0.00(  0.04%)
                                         0.0000 -0.5427  0.0043  0.4996  0.0179
                                        -0.6462  0.0111 -0.1937 -0.0051  0.0142
                                         0.0040 -0.0058  0.0071  0.0090
               ( 60.38%)  -0.7771* H  8 s( 99.91%)p 0.00(  0.09%)
                                        -0.9995  0.0016 -0.0177  0.0237  0.0068
  30. (0.01346) BD*( 1) C  1- H  9
               ( 38.52%)   0.6207* C  1 s( 29.43%)p 2.40( 70.53%)d 0.00(  0.03%)
                                         0.0000 -0.5425  0.0035  0.3645  0.0148
                                         0.7544 -0.0065 -0.0554 -0.0044 -0.0091
                                         0.0010  0.0006  0.0122  0.0099
               ( 61.48%)  -0.7841* H  9 s( 99.89%)p 0.00(  0.11%)
                                        -0.9995  0.0050 -0.0109 -0.0307  0.0011
  31. (0.02866) BD*( 1) C  2- C  3
               ( 50.32%)   0.7094* C  2 s( 31.48%)p 2.18( 68.49%)d 0.00(  0.04%)
                                         0.0000  0.5610  0.0010  0.4088 -0.0269
                                         0.7154  0.0047 -0.0717  0.0073  0.0135
                                        -0.0044 -0.0022 -0.0037 -0.0119
               ( 49.68%)  -0.7048* C  3 s( 28.54%)p 2.50( 71.43%)d 0.00(  0.04%)
                                         0.0000  0.5342 -0.0039 -0.5045 -0.0115
                                        -0.6700  0.0119  0.1029  0.0039  0.0134
                                        -0.0017 -0.0021 -0.0091 -0.0103
  32. (0.09243) BD*( 1) C  2- C  6
               ( 47.63%)   0.6901* C  2 s( 28.54%)p 2.50( 71.42%)d 0.00(  0.04%)
                                         0.0000 -0.5340  0.0166 -0.4472  0.0218
                                         0.6933  0.0038  0.1819 -0.0065  0.0143
                                         0.0057 -0.0060  0.0044  0.0105
               ( 52.37%)  -0.7237* C  6 s( 35.69%)p 1.80( 64.26%)d 0.00(  0.05%)
                                         0.0000 -0.5969  0.0241  0.5192  0.0040
                                        -0.5779  0.0314 -0.1954  0.0016  0.0156
                                         0.0032 -0.0065  0.0103  0.0091
  33. (0.01417) BD*( 1) C  3- C  4
               ( 50.08%)   0.7077* C  3 s( 26.00%)p 2.84( 73.96%)d 0.00(  0.04%)
                                         0.0000 -0.5098 -0.0074 -0.7899 -0.0106
                                         0.2271 -0.0214  0.2519  0.0017  0.0127
                                         0.0092 -0.0044 -0.0093  0.0090
               ( 49.92%)  -0.7065* C  4 s( 28.15%)p 2.55( 71.81%)d 0.00(  0.04%)
                                         0.0000 -0.5306  0.0025  0.7461 -0.0168
                                        -0.3174 -0.0189 -0.2451  0.0040  0.0059
                                         0.0097 -0.0019 -0.0143  0.0081
  34. (0.01476) BD*( 1) C  3- H 10
               ( 37.59%)   0.6131* C  3 s( 22.70%)p 3.40( 77.27%)d 0.00(  0.03%)
                                         0.0000 -0.4764  0.0010 -0.0617  0.0054
                                        -0.4490 -0.0091 -0.7530  0.0090 -0.0013
                                        -0.0023 -0.0115  0.0032 -0.0122
               ( 62.41%)  -0.7900* H 10 s( 99.89%)p 0.00(  0.11%)
                                        -0.9995  0.0027  0.0012  0.0166  0.0281
  35. (0.01467) BD*( 1) C  3- H 11
               ( 37.59%)   0.6131* C  3 s( 22.71%)p 3.40( 77.26%)d 0.00(  0.03%)
                                         0.0000 -0.4766  0.0010  0.3416 -0.0009
                                        -0.5454 -0.0070  0.5985 -0.0117  0.0064
                                        -0.0091  0.0123  0.0025 -0.0052
               ( 62.41%)  -0.7900* H 11 s( 99.90%)p 0.00(  0.10%)
                                        -0.9995  0.0027 -0.0133  0.0198 -0.0214
  36. (0.01765) BD*( 1) C  4- N  5
               ( 62.11%)   0.7881* C  4 s( 23.18%)p 3.31( 76.69%)d 0.01(  0.13%)
                                         0.0000  0.4812  0.0171 -0.0450  0.0233
                                        -0.8723 -0.0349 -0.0467 -0.0093  0.0061
                                        -0.0007  0.0025 -0.0297 -0.0190
               ( 37.89%)  -0.6156* N  5 s( 34.62%)p 1.89( 65.35%)d 0.00(  0.04%)
                                         0.0000  0.5883  0.0055  0.1482 -0.0297
                                         0.7940  0.0025  0.0112  0.0082  0.0014
                                        -0.0029  0.0021 -0.0138 -0.0131
  37. (0.02319) BD*( 1) C  4- H 12
               ( 38.75%)   0.6225* C  4 s( 24.32%)p 3.11( 75.65%)d 0.00(  0.04%)
                                         0.0000 -0.4931  0.0038 -0.6258  0.0006
                                        -0.2091 -0.0011 -0.5665  0.0153 -0.0037
                                        -0.0155 -0.0046 -0.0080 -0.0039
               ( 61.25%)  -0.7826* H 12 s( 99.89%)p 0.00(  0.11%)
                                        -0.9995  0.0052  0.0231  0.0090  0.0211
  38. (0.02333) BD*( 1) C  4- H 13
               ( 38.76%)   0.6225* C  4 s( 24.31%)p 3.11( 75.65%)d 0.00(  0.03%)
                                         0.0000 -0.4931  0.0034 -0.2214 -0.0082
                                        -0.3023  0.0004  0.7848 -0.0130 -0.0014
                                         0.0067  0.0089  0.0002 -0.0146
               ( 61.24%)  -0.7826* H 13 s( 99.89%)p 0.00(  0.11%)
                                        -0.9994  0.0053  0.0082  0.0128 -0.0296
  39. (0.08679) BD*( 1) N  5- C  6
               ( 36.44%)   0.6037* N  5 s( 37.78%)p 1.65( 62.18%)d 0.00(  0.04%)
                                         0.0000 -0.6146  0.0019  0.6923  0.0024
                                         0.3291 -0.0257 -0.1833 -0.0025 -0.0095
                                         0.0094  0.0019 -0.0104  0.0121
               ( 63.56%)  -0.7972* C  6 s( 30.26%)p 2.30( 69.60%)d 0.00(  0.14%)
                                         0.0000 -0.5500 -0.0091 -0.7776 -0.0353
                                        -0.2037  0.0304  0.2178  0.0127 -0.0200
                                         0.0148  0.0052 -0.0222  0.0163
  40. (0.02036) BD*( 1) N  5- H 14
               ( 28.84%)   0.5370* N  5 s( 27.45%)p 2.64( 72.52%)d 0.00(  0.03%)
                                         0.0000 -0.5239 -0.0036 -0.6458  0.0113
                                         0.5062 -0.0056  0.2274 -0.0048  0.0134
                                         0.0065 -0.0049 -0.0018  0.0087
               ( 71.16%)  -0.8436* H 14 s( 99.78%)p 0.00(  0.22%)
                                        -0.9989  0.0085  0.0325 -0.0308 -0.0121
  41. (0.01345) BD*( 1) C  6- O  7
               ( 65.37%)   0.8085* C  6 s( 33.56%)p 1.97( 66.27%)d 0.01(  0.17%)
                                         0.0000  0.5784  0.0324 -0.2044 -0.0039
                                        -0.7855 -0.0615  0.0057 -0.0029  0.0155
                                        -0.0006  0.0002 -0.0314 -0.0214
               ( 34.63%)  -0.5885* O  7 s( 43.57%)p 1.29( 56.26%)d 0.00(  0.17%)
                                         0.0000  0.6598  0.0201  0.2056  0.0067
                                         0.7209  0.0205 -0.0113 -0.0006  0.0197
                                         0.0005 -0.0013 -0.0310 -0.0197
  42. (0.33967) BD*( 2) C  6- O  7
               ( 68.80%)   0.8295* C  6 s(  0.00%)p 1.00( 99.72%)d 0.00(  0.28%)
                                         0.0000 -0.0001  0.0010 -0.2846  0.0071
                                         0.0671 -0.0017 -0.9542  0.0343  0.0139
                                         0.0130  0.0492  0.0075 -0.0008
               ( 31.20%)  -0.5585* O  7 s(  0.00%)p 1.00( 99.84%)d 0.00(  0.16%)
                                         0.0000 -0.0003 -0.0001 -0.2850 -0.0029
                                         0.0665  0.0006 -0.9553 -0.0124 -0.0101
                                        -0.0102 -0.0364 -0.0056  0.0009
  43. (0.00672) RY ( 1) C  1            s(  0.08%)p99.99( 96.30%)d44.37(  3.62%)
                                         0.0000 -0.0044  0.0282 -0.0073 -0.0972
                                         0.0143  0.9720  0.0036  0.0918  0.1751
                                         0.0252 -0.0496 -0.0486 -0.0084
  44. (0.00098) RY ( 2) C  1            s( 32.37%)p 2.08( 67.36%)d 0.01(  0.27%)
                                         0.0000  0.0072  0.5689 -0.0243  0.8148
                                         0.0005  0.0506  0.0049  0.0808  0.0312
                                         0.0117 -0.0026 -0.0019 -0.0399
  45. (0.00073) RY ( 3) C  1            s(  2.89%)p33.34( 96.37%)d 0.26(  0.74%)
                                         0.0000  0.0036  0.1700 -0.0105 -0.0255
                                         0.0020  0.0815 -0.0108 -0.9778  0.0186
                                        -0.0744 -0.0201 -0.0216  0.0251
  46. (0.00017) RY ( 4) C  1            s( 46.99%)p 0.52( 24.64%)d 0.60( 28.38%)
                                         0.0000 -0.0090  0.6854  0.0137 -0.4800
                                        -0.0047 -0.0233 -0.0060  0.1232 -0.3709
                                         0.0169  0.1461 -0.3388 -0.0988
  47. (0.00002) RY ( 5) C  1            s(  0.14%)p 7.03(  0.96%)d99.99( 98.91%)
  48. (0.00001) RY ( 6) C  1            s(  1.35%)p 0.93(  1.26%)d71.89( 97.38%)
  49. (0.00001) RY ( 7) C  1            s( 11.04%)p 0.96( 10.55%)d 7.10( 78.42%)
  50. (0.00000) RY ( 8) C  1            s(  0.01%)p 1.00(  0.82%)d99.99( 99.18%)
  51. (0.00000) RY ( 9) C  1            s(  5.18%)p 0.37(  1.91%)d17.92( 92.91%)
  52. (0.00505) RY ( 1) C  2            s( 28.23%)p 2.39( 67.53%)d 0.15(  4.25%)
                                         0.0000  0.0308  0.5304  0.0158  0.7955
                                        -0.0053 -0.0827 -0.0099 -0.1875  0.1250
                                        -0.0451 -0.0323  0.1467 -0.0472
  53. (0.00398) RY ( 2) C  2            s( 11.95%)p 6.89( 82.36%)d 0.48(  5.69%)
                                         0.0000 -0.0154  0.3453  0.0069 -0.3286
                                        -0.0044 -0.8452 -0.0004  0.0354  0.2085
                                         0.0334 -0.0596 -0.0873 -0.0340
  54. (0.00202) RY ( 3) C  2            s(  0.70%)p99.99( 81.46%)d25.57( 17.85%)
                                         0.0000 -0.0002  0.0835 -0.0029 -0.2412
                                        -0.0008  0.0911 -0.0156 -0.8648 -0.0480
                                        -0.3004 -0.2384 -0.1113  0.1293
  55. (0.00155) RY ( 4) C  2            s( 58.98%)p 0.62( 36.50%)d 0.08(  4.52%)
                                         0.0000 -0.0236  0.7676  0.0175 -0.3768
                                        -0.0085  0.4238 -0.0012  0.2073 -0.1874
                                         0.0200  0.0836 -0.0476 -0.0207
  56. (0.00037) RY ( 5) C  2            s(  0.01%)p99.99(  4.67%)d99.99( 95.31%)
                                         0.0000  0.0065  0.0102 -0.0087  0.0747
                                        -0.0124  0.2018  0.0013 -0.0136  0.5573
                                         0.2154  0.0032 -0.7705 -0.0502
  57. (0.00032) RY ( 6) C  2            s(  0.00%)p 1.00(  1.18%)d83.68( 98.81%)
                                         0.0000  0.0055 -0.0040 -0.0032  0.0653
                                         0.0047 -0.0484  0.0065 -0.0716 -0.4489
                                         0.5489 -0.5626 -0.1538 -0.3809
  58. (0.00030) RY ( 7) C  2            s(  0.02%)p99.99(  8.32%)d99.99( 91.66%)
                                         0.0000  0.0114 -0.0068 -0.0099  0.1689
                                         0.0168 -0.2142  0.0016 -0.0916 -0.6005
                                        -0.0648  0.5505 -0.4932  0.0742
  59. (0.00020) RY ( 8) C  2            s(  0.00%)p 1.00( 17.77%)d 4.63( 82.23%)
                                         0.0000  0.0011  0.0006 -0.0045  0.1322
                                         0.0023 -0.0387 -0.0111  0.3982 -0.1682
                                        -0.5776 -0.5496 -0.3063  0.2539
  60. (0.00002) RY ( 9) C  2            s(  0.28%)p 0.71(  0.20%)d99.99( 99.52%)
  61. (0.00275) RY ( 1) C  3            s(  3.81%)p22.72( 86.60%)d 2.51(  9.59%)
                                         0.0000 -0.0072  0.1951  0.0071 -0.2545
                                         0.0023  0.1900  0.0146  0.8746  0.0130
                                         0.0423 -0.2253  0.1919 -0.0795
  62. (0.00257) RY ( 2) C  3            s(  8.35%)p 9.74( 81.31%)d 1.24( 10.34%)
                                         0.0000 -0.0083  0.2888 -0.0002 -0.7687
                                         0.0056  0.3035 -0.0129 -0.3604  0.1502
                                        -0.1468  0.1090  0.2074  0.0662
  63. (0.00152) RY ( 3) C  3            s( 15.03%)p 5.16( 77.59%)d 0.49(  7.38%)
                                         0.0000  0.0185  0.3872  0.0078 -0.2947
                                        -0.0046 -0.8278 -0.0017  0.0609 -0.1952
                                         0.0489  0.0700 -0.1670 -0.0231
  64. (0.00050) RY ( 4) C  3            s(  2.73%)p 0.50(  1.36%)d35.19( 95.92%)
                                         0.0000 -0.0004  0.1651 -0.0049  0.1105
                                         0.0010  0.0343 -0.0029 -0.0117  0.1369
                                         0.6681  0.5254  0.3163 -0.3434
  65. (0.00040) RY ( 5) C  3            s( 64.33%)p 0.40( 25.89%)d 0.15(  9.78%)
                                         0.0000 -0.0021  0.8021 -0.0167  0.4740
                                         0.0025  0.1397  0.0064 -0.1199  0.0569
                                        -0.2546 -0.1387  0.0927 -0.0431
  66. (0.00006) RY ( 6) C  3            s(  0.17%)p 3.63(  0.61%)d99.99( 99.22%)
  67. (0.00004) RY ( 7) C  3            s(  1.35%)p 8.44( 11.41%)d64.55( 87.24%)
  68. (0.00004) RY ( 8) C  3            s(  3.59%)p 3.92( 14.06%)d22.97( 82.35%)
  69. (0.00000) RY ( 9) C  3            s(  0.70%)p 1.78(  1.25%)d99.99( 98.04%)
  70. (0.00272) RY ( 1) C  4            s(  0.06%)p99.99( 76.23%)d99.99( 23.71%)
                                         0.0000  0.0003  0.0247 -0.0087 -0.2830
                                         0.0028  0.0150 -0.0264 -0.8254  0.0937
                                         0.2938  0.3298  0.1330 -0.1247
  71. (0.00252) RY ( 2) C  4            s(  2.68%)p28.59( 76.58%)d 7.74( 20.74%)
                                         0.0000  0.0171  0.1628 -0.0131 -0.7569
                                        -0.0020 -0.3576  0.0051  0.2546  0.3542
                                        -0.0571 -0.1478  0.2379  0.0163
  72. (0.00118) RY ( 3) C  4            s(  1.99%)p48.89( 97.24%)d 0.39(  0.77%)
                                         0.0000 -0.0170  0.1400 -0.0048  0.4067
                                         0.0397 -0.8864  0.0049 -0.1407 -0.0071
                                        -0.0495  0.0528  0.0492 -0.0001
  73. (0.00088) RY ( 4) C  4            s(  0.17%)p42.98(  7.49%)d99.99( 92.34%)
                                         0.0000 -0.0010  0.0417 -0.0002 -0.0544
                                         0.0028 -0.0345 -0.0010 -0.2659 -0.3072
                                         0.1730 -0.8665  0.0067 -0.2196
  74. (0.00059) RY ( 5) C  4            s( 74.41%)p 0.03(  2.17%)d 0.31( 23.42%)
                                         0.0000  0.0006  0.8626  0.0084 -0.0596
                                         0.0056  0.1261 -0.0013  0.0462 -0.4293
                                        -0.1145  0.1680  0.0799 -0.0475
  75. (0.00013) RY ( 6) C  4            s(  6.28%)p 0.11(  0.66%)d14.82( 93.06%)
                                         0.0000 -0.0040  0.2505 -0.0057 -0.0511
                                         0.0400 -0.0446  0.0045  0.0195  0.3240
                                         0.1644 -0.0089 -0.8518 -0.2702
  76. (0.00002) RY ( 7) C  4            s( 13.85%)p 1.61( 22.24%)d 4.62( 63.91%)
  77. (0.00001) RY ( 8) C  4            s(  0.02%)p99.99( 16.46%)d99.99( 83.52%)
  78. (0.00001) RY ( 9) C  4            s(  0.59%)p 1.92(  1.13%)d99.99( 98.29%)
  79. (0.00240) RY ( 1) N  5            s(  0.39%)p99.99( 95.31%)d10.93(  4.30%)
                                         0.0000  0.0027  0.0626 -0.0060  0.3494
                                         0.0029 -0.1257 -0.0154  0.9027 -0.0851
                                        -0.0161 -0.1858 -0.0164 -0.0266
  80. (0.00170) RY ( 2) N  5            s( 43.39%)p 1.23( 53.37%)d 0.07(  3.24%)
                                         0.0000  0.0166  0.6585 -0.0100  0.2582
                                        -0.0029 -0.6417  0.0067 -0.2346 -0.1312
                                        -0.0437  0.0795 -0.0286 -0.0785
  81. (0.00129) RY ( 3) N  5            s( 43.38%)p 0.72( 31.21%)d 0.59( 25.41%)
                                         0.0000 -0.0157  0.6584  0.0080 -0.0556
                                        -0.0049  0.5518 -0.0019  0.0669  0.3893
                                         0.1026 -0.0842 -0.2843 -0.0641
  82. (0.00039) RY ( 4) N  5            s(  0.01%)p 1.00( 39.97%)d 1.50( 60.03%)
                                         0.0000  0.0009  0.0092 -0.0014  0.4578
                                         0.0116  0.4235  0.0037 -0.1026 -0.6247
                                         0.1048  0.3898 -0.1746 -0.1287
  83. (0.00032) RY ( 5) N  5            s(  0.02%)p99.99(  3.63%)d99.99( 96.35%)
                                         0.0000 -0.0012  0.0146 -0.0030  0.0125
                                         0.0009  0.0980 -0.0028 -0.1628 -0.3311
                                        -0.5581 -0.6278 -0.3305  0.1977
  84. (0.00020) RY ( 6) N  5            s(  2.35%)p27.99( 65.72%)d13.60( 31.94%)
                                         0.0000 -0.0225  0.1516 -0.0207 -0.7581
                                        -0.0175 -0.1072  0.0029  0.2650 -0.4314
                                         0.0205  0.2203 -0.2696 -0.1082
  85. (0.00009) RY ( 7) N  5            s(  6.31%)p 1.24(  7.85%)d13.60( 85.83%)
  86. (0.00002) RY ( 8) N  5            s(  0.00%)p 1.00(  1.81%)d54.19( 98.18%)
  87. (0.00001) RY ( 9) N  5            s(  4.31%)p 0.26(  1.10%)d21.97( 94.60%)
  88. (0.01827) RY ( 1) C  6            s( 10.42%)p 8.56( 89.12%)d 0.04(  0.47%)
                                         0.0000 -0.0613  0.3169  0.0108 -0.2973
                                         0.0342 -0.8948  0.0001  0.0286 -0.0614
                                        -0.0067  0.0185  0.0211  0.0094
  89. (0.01092) RY ( 2) C  6            s(  0.13%)p99.99( 67.84%)d99.99( 32.04%)
                                         0.0000  0.0351  0.0049  0.0430 -0.7381
                                        -0.0016  0.2793 -0.0114  0.2314 -0.4566
                                         0.0578  0.1428 -0.2969  0.0073
  90. (0.00526) RY ( 3) C  6            s(  0.06%)p99.99( 15.23%)d99.99( 84.71%)
                                         0.0000 -0.0004  0.0240 -0.0184 -0.1061
                                         0.0049  0.0284 -0.0580 -0.3694 -0.1788
                                        -0.4057 -0.7781 -0.1727  0.1236
  91. (0.00312) RY ( 4) C  6            s( 76.15%)p 0.13(  9.86%)d 0.18( 14.00%)
                                         0.0000  0.0069  0.8726 -0.0157 -0.0640
                                         0.0346  0.3041  0.0094  0.0211  0.3348
                                         0.0305 -0.0627 -0.0682 -0.1356
  92. (0.00190) RY ( 5) C  6            s(  5.59%)p 5.46( 30.56%)d11.42( 63.85%)
                                         0.0000 -0.0171  0.2359  0.0087  0.5245
                                         0.0099 -0.0671 -0.0042 -0.1605 -0.5414
                                         0.1127  0.1910 -0.5433 -0.0312
  93. (0.00110) RY ( 6) C  6            s(  0.08%)p99.99( 36.77%)d99.99( 63.15%)
                                         0.0000 -0.0003  0.0284  0.0051  0.1645
                                         0.0016 -0.0292  0.0177  0.5826  0.1277
                                        -0.6396  0.1150 -0.2381  0.3691
  94. (0.00052) RY ( 7) C  6            s(  6.53%)p 0.38(  2.47%)d13.95( 91.01%)
                                         0.0000  0.0162  0.2549 -0.0181  0.1024
                                        -0.0218  0.1139  0.0048  0.0201 -0.5491
                                        -0.2951  0.1127  0.7131  0.0156
  95. (0.00019) RY ( 8) C  6            s(  0.00%)p 1.00( 48.11%)d 1.08( 51.89%)
                                         0.0000  0.0000  0.0053 -0.0003 -0.1925
                                        -0.0008  0.0476 -0.0004 -0.6646  0.1747
                                        -0.3490  0.5416 -0.0644  0.2627
  96. (0.00001) RY ( 9) C  6            s(  1.54%)p 0.14(  0.22%)d63.91( 98.24%)
  97. (0.00194) RY ( 1) O  7            s(  0.66%)p99.99( 97.48%)d 2.82(  1.86%)
                                         0.0000 -0.0016  0.0812  0.0079  0.8914
                                        -0.0050 -0.2393 -0.0007 -0.3504  0.1107
                                        -0.0122 -0.0452  0.0644  0.0077
  98. (0.00085) RY ( 2) O  7            s(  0.01%)p99.99( 96.19%)d99.99(  3.80%)
[...]
  2 C                 2.4      -8.9      -1.1      -0.1       0.4       0.0
  3 C                -0.0       0.5       0.1      -0.0       0.0      -0.0
  4 N                -0.1      -1.1      -0.1      -0.1      -0.0      -0.0
  5 C                 0.3      -0.9       0.0      -0.2      -0.3       0.1
  6 O                -0.1      -0.4      -0.1      -0.1      -0.0      -0.0
  7 H               -22.1      -1.1      -0.3     -22.8      -3.8      -3.1
  8 H               -18.5      -1.1      -0.4     -18.7      -0.6      -3.5
  9 H                -0.1      -0.1      -0.0      -0.0      -0.0      -0.0
 10 H                -0.1       0.0      -0.2      -0.0      -0.0      -0.0
 13 H                -0.0      -0.1      -0.0      -0.0      -0.0      -0.0

                     48        49        50        51        52        53   
                   0.00000   0.00000   0.00000   0.00000   0.00000   0.00000
                   0.00001   0.00000   0.00000   0.00505   0.00398   0.00202
                  --------  --------  --------  --------  --------  --------
  0 C               128.1     104.7     116.8     -14.0     -87.6      -7.5
  1 C                -9.7      -3.1      -4.0     262.5     291.5     120.4
  2 C                 0.3      -0.1       0.0     -66.0     -30.0      -5.9
  3 C                 0.0      -0.0      -0.0      10.3       0.7       0.1
  4 N                -0.0      -0.0      -0.0       3.4      -4.4       0.1
  5 C                 0.6      -0.0      -0.1     -90.4     -75.3      -6.4
  6 O                -0.1      -0.0      -0.1      -4.5       0.6      -0.3
  7 H                -5.8      -0.2      -4.5      -0.0      -1.3      -0.0
  8 H               -13.3      -1.1      -8.1      -0.3       4.7      -0.1
  9 H                -0.0      -0.0      -0.0      -0.4       0.6      -0.2
 10 H                -0.0      -0.0      -0.0      -0.4       0.6      -0.2
 13 H                -0.0      -0.0      -0.0      -0.2      -0.1      -0.0

                     54        55        56        57        58        59   
                   0.00000   0.00000   0.00000   0.00000   0.00000   0.00000
                   0.00155   0.00037   0.00032   0.00030   0.00020   0.00002
                  --------  --------  --------  --------  --------  --------
  0 C              -124.9      -2.4      -1.2      -3.1      -2.9      -0.2
  1 C               301.0     106.5     103.0     106.2     110.0     102.2
  2 C               -70.4      -0.6      -0.2      -2.1      -6.9      -0.3
  3 C                -0.1      -0.2       0.0       0.3       0.2       0.0
  4 N                -1.9      -0.3      -0.0      -0.3      -0.0      -0.1
  5 C                -5.3      -3.0      -1.4      -0.8      -1.2      -1.4
  6 O                -0.1       0.1      -0.2      -0.4      -0.0      -0.1
  7 H                 2.8      -0.0       0.0       0.3      -0.0      -0.1
  8 H                -1.5       0.2      -0.0      -0.1       0.0      -0.1
  9 H                 0.3      -0.2      -0.0       0.1       0.4      -0.0
 10 H                 0.3      -0.1      -0.0      -0.1       0.4      -0.0

                     60        61        62        63        64        65   
                   0.00000   0.00000   0.00000   0.00000   0.00000   0.00000
                   0.00275   0.00257   0.00152   0.00050   0.00040   0.00006
                  --------  --------  --------  --------  --------  --------
  0 C                -0.6      -1.0      -3.7      -0.0      -1.3       0.3
  1 C               -14.4     -21.6    -102.1      -2.3     -33.3      -1.3
  2 C               151.4     156.9     228.8     112.3     255.6     103.9
  3 C               -10.6      -7.4     -19.6      -4.7    -100.4      -1.0
  4 N                -0.1      -0.4      -0.5       0.0       2.2      -0.0
  5 C                -0.8      -1.6       0.1       0.1       3.4      -0.2
  6 O                -0.0      -0.0       0.2      -0.0       0.1      -0.0
  7 H                -0.4      -0.6      -0.9      -0.0       0.0       0.0
  8 H                 0.0       0.0       0.4      -0.0       0.0      -0.0
  9 H               -23.3      -0.9      -1.2      -1.9     -15.6      -0.7
 10 H                -1.6     -23.4      -0.9      -3.5     -13.2      -0.7
 11 H                -0.2       0.4      -0.2      -0.3       1.5      -0.0
 12 H                 0.6      -0.3      -0.2       0.2       1.0      -0.0

                     66        67        68        69        70        71   
                   0.00000   0.00000   0.00000   0.00000   0.00000   0.00000
                   0.00004   0.00004   0.00000   0.00272   0.00252   0.00118
                  --------  --------  --------  --------  --------  --------
  0 C                 0.1       0.3      -0.2       0.0       0.4       0.0
  1 C                -1.9      -4.6      -2.3       0.2       8.4      -1.9
  2 C               118.5     119.5     109.8     -12.0     -36.8     -16.6
  3 C                -2.1      -2.4      -3.3     141.4     151.7     154.0
  4 N                -0.1      -0.1      -0.0      -5.1      -7.5     -29.4
  5 C                 0.3       0.8       0.2      -0.4      -7.7      -2.6
  6 O                 0.0       0.0      -0.0      -0.0      -0.4      -0.1
  7 H                -0.0      -0.1      -0.0      -0.0      -0.0      -0.0
  9 H                -2.4     -11.5      -2.2       0.3       0.1       0.1
 10 H               -12.5      -1.8      -2.0       0.4       0.0       0.1
 11 H                 0.0       0.1      -0.0     -12.4      -3.4      -1.5
 12 H                 0.1      -0.0      -0.0     -12.4      -4.5      -0.6
 13 H                -0.0      -0.0      -0.0      -0.1      -0.3      -1.4

                     72        73        74        75        76        77   
                   0.00000   0.00000   0.00000   0.00000   0.00000   0.00000
                   0.00088   0.00059   0.00013   0.00002   0.00001   0.00001
                  --------  --------  --------  --------  --------  --------
  0 C                -0.0       0.1      -0.1      -0.1       0.0      -0.1
  1 C                -0.1       6.3       2.3      -1.1       0.1       0.1
  2 C                 0.4     -70.6     -10.1      -4.8      -3.8      -2.6
  3 C               109.2     228.8     113.6     132.2     119.9     108.8
  4 N                -2.7     -26.0       0.3      -5.2      -0.4      -1.4
  5 C                 0.1      -3.1      -2.9       1.1      -0.1      -0.3
  6 O                 0.0      -0.2      -0.2       0.0      -0.0      -0.0
  9 H                -0.1       0.8      -0.0       0.0       0.2      -0.0
 10 H                -0.1       0.8      -0.0      -0.0       0.2      -0.0
 11 H                -2.8     -18.6      -1.6     -11.5      -7.4      -2.3
 12 H                -3.8     -17.6      -1.5     -10.5      -8.6      -2.0
 13 H                -0.1      -0.7       0.2      -0.1       0.0      -0.0

                     78        79        80        81        82        83   
                   0.00000   0.00000   0.00000   0.00000   0.00000   0.00000
                   0.00240   0.00170   0.00129   0.00039   0.00032   0.00020
                  --------  --------  --------  --------  --------  --------
  0 C                -0.0      -0.7      -0.0      -0.1      -0.0      -0.4
  1 C                 0.0       1.6      -2.1      -1.2      -0.1      -1.1
  2 C                 0.0       4.1      -0.4      -0.8      -0.1      -0.9
  3 C                -5.4     -37.5      -1.7     -10.2      -1.8     -12.2
  4 N               111.2     163.8     157.2     131.6     103.8     128.2
  5 C                -4.5     -26.4     -40.5     -15.9      -1.6      -5.1
  6 O                -0.4      -3.5      -1.9      -0.4      -0.0      -0.6
  8 H                -0.0      -0.0      -0.1      -0.1      -0.0      -0.0
 11 H                 0.1       0.3       0.0       0.3      -0.1       0.1
 12 H                 0.1       0.2       0.0       0.2       0.1       0.3
 13 H                -1.1      -1.8     -10.3      -3.2      -0.2      -8.3

                     84        85        86        87        88        89   
                   0.00000   0.00000   0.00000   0.00000   0.00000   0.00000
                   0.00009   0.00002   0.00001   0.01827   0.01092   0.00526
                  --------  --------  --------  --------  --------  --------
  0 C                 0.1      -0.0      -0.1       0.5       5.4      -0.0
  1 C                -0.5      -0.0       0.0     -20.6     -34.7      -0.9
  2 C                -0.1      -0.0      -0.1       3.4      -4.8       0.0
  3 C                -2.0      -0.8      -2.2      -2.4      -3.2      -0.2
  4 N               112.0     103.9     106.5      -6.0     -28.8      -0.7
  5 C                -4.7      -0.7      -2.6     176.6     183.4     106.0
  6 O                -0.1      -0.0      -0.2     -49.4     -16.2      -4.3
  8 H                 0.0      -0.0      -0.0      -1.4      -0.9       0.0
 13 H                -4.7      -2.3      -1.2      -0.4      -0.3      -0.0

                     90        91        92        93        94        95   
                   0.00000   0.00000   0.00000   0.00000   0.00000   0.00000
                   0.00312   0.00190   0.00110   0.00052   0.00019   0.00001
                  --------  --------  --------  --------  --------  --------
  0 C                -1.5      -2.9      -0.0      -0.4       0.1      -0.1
  1 C              -115.9      -4.8      -1.4      -7.9      -6.7      -2.3
  2 C                 4.2      -0.6      -0.2       1.1       0.2       0.1
  3 C                -7.1      -1.8       0.5       1.0      -0.7      -0.3
  4 N               -25.9     -37.8      -5.0      -4.8      -1.0      -1.8
  5 C               246.7     154.8     107.9     112.5     109.1     105.1
  6 O                 0.4      -4.5      -1.7      -0.6      -1.1      -0.5
  7 H                 0.3      -0.1       0.0      -0.0      -0.0      -0.0
  8 H                -0.9      -0.5       0.0      -0.0      -0.0       0.0
 13 H                -0.2      -1.9      -0.1      -0.7       0.0      -0.1

                     96        97        98        99       100       101   
                   0.00000   0.00000   0.00000   0.00000   0.00000   0.00000
                   0.00194   0.00085   0.00024   0.00008   0.00003   0.00001
                  --------  --------  --------  --------  --------  --------
  0 C                -0.3      -0.1      -0.7       0.0       0.0      -0.0
  1 C                 0.5      -0.2      -4.5      -0.4      -0.1      -0.0
  2 C                -0.2      -0.0       0.5      -0.0       0.0      -0.0
  3 C                -0.1      -0.0      -0.7      -0.0       0.0      -0.0
  4 N                -1.3      -0.4      -4.9      -0.4       0.0      -0.0
  5 C               -19.3      -4.7     -34.9      -4.1      -2.4      -0.2
  6 O               120.7     105.4     145.3     105.1     102.5     100.2
  8 H                -0.1      -0.0       0.1      -0.1      -0.0      -0.0
 13 H                -0.0      -0.0      -0.2      -0.0      -0.0      -0.0

                    102       103       104       105       106       107   
                   0.00000   0.00000   0.00000   0.00000   0.00000   0.00000
                   0.00001   0.00000   0.00000   0.00163   0.00025   0.00011
                  --------  --------  --------  --------  --------  --------
  0 C                 0.0      -0.0      -0.0     -44.2      -3.2      -3.0
  1 C                -0.3      -0.0      -0.0       1.5      -0.0      -0.5
  2 C                -0.0       0.0      -0.0      -1.9      -0.0      -0.0
  4 N                -0.3      -0.1      -0.1      -0.1      -0.0      -0.0
  5 C                -2.4      -0.6      -3.0       0.3      -0.0      -0.0
  6 O               103.1     100.7     103.1      -0.0      -0.0      -0.0
  7 H                -0.0      -0.0      -0.0     146.1     103.4     104.1
  8 H                -0.0      -0.0      -0.0      -1.5      -0.1      -0.6
  9 H                -0.0      -0.0      -0.0      -0.1      -0.0      -0.0

                    108       109       110       111       112       113   
                   0.00000   0.00000   0.00000   0.00000   0.00000   0.00000
                   0.00005   0.00385   0.00021   0.00010   0.00006   0.00204
                  --------  --------  --------  --------  --------  --------
  0 C                -8.7     -48.3      -3.3      -2.8      -8.4      -0.3
  1 C                 0.0       3.9      -0.0      -0.8      -0.2       0.4
  2 C                -0.1       0.7      -0.0      -0.0      -0.0     -37.8
  3 C                -0.0      -0.2      -0.0      -0.0      -0.0       1.1
  4 N                -0.0      -0.3      -0.0      -0.0      -0.0       0.0
  5 C                -0.0      -3.7      -0.0       0.0      -0.0       0.2
  7 H               108.9      -1.6      -0.1      -0.5      -0.1      -0.1
  8 H                -0.1     149.5     103.5     104.1     108.7      -0.0
  9 H                -0.0      -0.0      -0.0      -0.0      -0.0     138.7
 10 H                -0.0      -0.0      -0.0      -0.0      -0.0      -0.4
 11 H                -0.0      -0.0      -0.0      -0.0       0.0      -1.7

                    114       115       116       117       118       119   
                   0.00000   0.00000   0.00000   0.00000   0.00000   0.00000
                   0.00014   0.00011   0.00002   0.00204   0.00014   0.00012
                  --------  --------  --------  --------  --------  --------
  0 C                -0.0      -0.0      -0.0      -0.3      -0.0      -0.0
  1 C                 0.1      -0.0      -0.2       0.4       0.1      -0.1
  2 C                -3.1      -4.6      -7.6     -37.8      -3.4      -4.3
  3 C                -0.3       0.1      -0.2       1.1      -0.2      -0.0
  5 C                -0.0      -0.1       0.0       0.2      -0.0      -0.1
  7 H                -0.0      -0.0      -0.0      -0.1      -0.0      -0.0
  9 H               104.1     105.6     108.2      -0.4      -0.6      -0.8
 10 H                -0.5      -0.8       0.0     138.7     104.3     105.4
 12 H                 0.0      -0.0      -0.0      -1.7      -0.1      -0.0

                    120       121       122       123       124       125   
                   0.00000   0.00000   0.00000   0.00000   0.00000   0.00000
                   0.00002   0.00244   0.00013   0.00012   0.00002   0.00248
                  --------  --------  --------  --------  --------  --------
  1 C                -0.2       0.0      -0.1      -0.0       0.0       0.0
  2 C                -7.7       1.1      -0.2      -0.0      -0.4       1.1
  3 C                -0.2     -39.5      -3.8      -3.5      -6.8     -39.4
  4 N                 0.0       0.7      -0.0      -0.2      -0.4       0.7
  9 H                -0.0      -1.8      -0.1      -0.0      -0.0       0.0
 10 H               108.3       0.0      -0.0      -0.0      -0.0      -1.8
 11 H                -0.0     140.3     104.8     104.4     107.6      -0.5
 12 H                -0.1      -0.5      -0.6      -0.6       0.0     140.2
 13 H                -0.0      -0.2      -0.0      -0.0      -0.0      -0.2

                    126       127       128       129       130       131   
                   0.00000   0.00000   0.00000   0.00000   0.00000   0.00000
                   0.00013   0.00011   0.00002   0.00489   0.00045   0.00012
                  --------  --------  --------  --------  --------  --------
  1 C                -0.1      -0.0       0.0      -0.4      -0.0      -0.1
  2 C                -0.3       0.1      -0.4      -0.1      -0.0      -0.1
  3 C                -3.6      -3.8      -6.7      -2.1      -0.2      -0.5
  4 N                -0.0      -0.1      -0.4      -7.6      -3.3      -3.4
  5 C                -0.0      -0.0      -0.0      -4.1      -0.1      -0.5
  6 O                -0.0      -0.0      -0.0      -0.1      -0.0      -0.1
 11 H                -0.5      -0.7       0.0      -0.2      -0.0      -0.0
 12 H               104.6     104.7     107.6      -0.2      -0.0      -0.0
 13 H                -0.0      -0.0      -0.0     114.8     103.8     104.7

                    132   
                   0.00000
                   0.00005
                  --------
  3 C                -0.1
  4 N                -5.7
 13 H               105.8

Storing NBOs: 4643.nbo
                                    *** NBOs were stored ***

                                *** returned from GENNBO program ***

-------
TIMINGS
-------

Total SCF time: 0 days 0 hours 0 min 5 sec 

Total time                  ....       5.016 sec
Sum of individual times     ....       5.464 sec  (108.9%)

Fock matrix formation       ....       3.204 sec  ( 63.9%)
  Coulomb formation         ....       1.712 sec  ( 53.5% of F)
  Split-RI-J                ....       1.706 sec  ( 53.3% of F)
  XC integration            ....       1.487 sec  ( 46.4% of F)
    Basis function eval.    ....       0.495 sec  ( 33.3% of XC)
    Density eval.           ....       0.272 sec  ( 18.3% of XC)
    XC-Functional eval.     ....       0.090 sec  (  6.0% of XC)
    XC-Potential eval.      ....       0.597 sec  ( 40.1% of XC)
Diagonalization             ....       0.020 sec  (  0.4%)
Density matrix formation    ....       0.002 sec  (  0.0%)
Population analysis         ....       1.259 sec  ( 25.1%)
Initial guess               ....       0.341 sec  (  6.8%)
Orbital Transformation      ....       0.000 sec  (  0.0%)
Orbital Orthonormalization  ....       0.000 sec  (  0.0%)
DIIS solution               ....       0.005 sec  (  0.1%)
SOSCF solution              ....       0.011 sec  (  0.2%)
Grid generation             ....       0.622 sec  ( 12.4%)
           ************************************************************
           *              Shut down parallel processing               *
           ************************************************************

-------------------------   --------------------
FINAL SINGLE POINT ENERGY      -324.086110994391
-------------------------   --------------------


                            ***************************************
                            *     ORCA property calculations      *
                            ***************************************

                                    ---------------------
                                    Active property flags
                                    ---------------------
   (+) Dipole Moment


------------------------------------------------------------------------------
                       ORCA ELECTRIC PROPERTIES CALCULATION
------------------------------------------------------------------------------

Dipole Moment Calculation                       ... on
Quadrupole Moment Calculation                   ... off
Polarizability Calculation                      ... off
GBWName                                         ... 4643.gbw
Electron density file                           ... 4643.scfp.tmp

-------------
DIPOLE MOMENT
-------------
                                X             Y             Z
Electronic contribution:      0.17063      -4.87771      -0.38801
Nuclear contribution   :      0.57535       6.25449       0.26320
                        -----------------------------------------
Total Dipole Moment    :      0.74598       1.37678      -0.12481
                        -----------------------------------------
Magnitude (a.u.)       :      1.57086
Magnitude (Debye)      :      3.99280


Timings for individual modules:

Sum of individual times         ...        6.161 sec (=   0.103 min)
GTO integral calculation        ...        0.470 sec (=   0.008 min)   7.6 %
SCF iterations                  ...        5.691 sec (=   0.095 min)  92.4 %
                             ****ORCA TERMINATED NORMALLY****
TOTAL RUN TIME: 0 days 0 hours 0 minutes 6 seconds 556 msec
