
                                 *****************
                                 * O   R   C   A *
                                 *****************

           --- An Ab Initio, DFT and Semiempirical electronic structure package ---

                  #######################################################
                  #                        -***-                        #
                  #  Department of molecular theory and spectroscopy    #
                  #              Directorship: Frank Neese              #
                  # Max Planck Institute for Chemical Energy Conversion #
                  #                  D-45470 Muelheim/Ruhr              #
                  #                       Germany                       #
                  #                                                     #
                  #                  All rights reserved                #
                  #                        -***-                        #
                  #######################################################


                         Program Version 3.0.3 - RELEASE   -


 With contributions from (in alphabetic order):
   Ute Becker             : Parallelization
   Dmytro Bykov           : SCF Hessian
   Dmitry Ganyushin       : Spin-Orbit,Spin-Spin,Magnetic field MRCI
   Andreas Hansen         : Spin unrestricted coupled pair/coupled cluster methods
   Dimitrios Liakos       : Extrapolation schemes; parallel MDCI
   Robert Izsak           : Overlap fitted RIJCOSX, COSX-SCS-MP3
   Christian Kollmar      : KDIIS, OOCD, Brueckner-CCSD(T), CCSD density
   Simone Kossmann        : Meta GGA functionals, TD-DFT gradient, OOMP2, MP2 Hessian
   Taras Petrenko         : DFT Hessian,TD-DFT gradient, ASA and ECA modules, normal mode analysis, Resonance Raman, ABS, FL, XAS/XES, NRVS
   Christoph Reimann      : Effective Core Potentials
   Michael Roemelt        : Restricted open shell CIS
   Christoph Riplinger    : Improved optimizer, TS searches, QM/MM, DLPNO-CCSD
   Barbara Sandhoefer     : DKH picture change effects
   Igor Schapiro          : Molecular dynamics
   Kantharuban Sivalingam : CASSCF convergence, NEVPT2
   Boris Wezisla          : Elementary symmetry handling
   Frank Wennmohs         : Technical directorship


 We gratefully acknowledge several colleagues who have allowed us to
 interface, adapt or use parts of their codes:
   Stefan Grimme, W. Hujo, H. Kruse, T. Risthaus : VdW corrections, initial TS optimization,
                                                   DFT functionals, gCP
   Ed Valeev                                     : LibInt (2-el integral package), F12 methods
   Garnet Chan, S. Sharma, R. Olivares           : DMRG
   Ulf Ekstrom                                   : XCFun DFT Library
   Mihaly Kallay                                 : mrcc  (arbitrary order and MRCC methods)
   Andreas Klamt, Michael Diedenhofen            : otool_cosmo (COSMO solvation model)
   Frank Weinhold                                : gennbo (NPA and NBO analysis)
   Christopher J. Cramer and Donald G. Truhlar   : smd solvation model


 Your calculation uses the libint2 library for the computation of 2-el integrals
 For citations please refer to: http://libint.valeyev.net

 This ORCA versions uses:
   CBLAS   interface :  Fast vector & matrix operations
   LAPACKE interface :  Fast linear algebra routines
   SCALAPACK package :  Parallel linear algebra routines


Your calculation utilizes the basis: Ahlrichs-VDZ
Cite in your paper:
H - Kr: A. Schaefer, H. Horn and R. Ahlrichs, J. Chem. Phys. 97, 2571 (1992).

Your calculation utilizes the basis: Ahlrichs SVPalls1+f
Cite in your paper:
Rb - Xe: A. Schaefer, C. Huber and R. Ahlrichs, J. Chem. Phys. 100, 5829 (1994).

================================================================================
                                        WARNINGS
                       Please study these warnings very carefully!
================================================================================
Now building the actual basis set


INFO   : the flag for use of LIBINT has been found!

================================================================================
                                       INPUT FILE
================================================================================
NAME = 4921.inp
|  1> ! RI PBE def2-SVP def2-SVP/J NBO PAL2
|  2> % maxcore 2000
|  3> % output
|  4>     # printlevel mini
|  5>     print[ P_Basis ] 0
|  6>     print[ P_SCFInfo ] 1
|  7>     print[ P_SCFIterInfo ] 1
|  8>     print[ P_OrbEn ] 0
|  9>     print[ P_Cartesian ] 0
| 10> end
| 11> *xyz 0 1
| 12>  C        1.0303100000    -0.1254250000     0.0350820000 
| 13>  C        2.4967520000     0.0511110000     0.0306830000 
| 14>  C        3.3135410000     1.1365740000     0.0326960000 
| 15>  O        3.0418390000     2.4608580000     0.0396060000 
| 16>  C        4.6179180000     0.5895760000     0.0256210000 
| 17>  N        4.5856650000    -0.7118670000     0.0198600000 
| 18>  O        3.2625780000    -1.0575310000     0.0229910000 
| 19>  H        0.5255560000     0.8429170000     0.0406960000 
| 20>  H        0.7006430000    -0.6795020000     0.9176940000 
| 21>  H        0.6945370000    -0.6724180000    -0.8496400000 
| 22>  H        2.0905610000     2.5962110000     0.0439070000 
| 23>  H        5.5648900000     1.1091060000     0.0246130000 
| 24> *
| 25> 
| 26>                          ****END OF INPUT****
================================================================================

                       ****************************
                       * Single Point Calculation *
                       ****************************

--------------------------------
INTERNAL COORDINATES (ANGSTROEM)
--------------------------------
 C      0   0   0   0.000000     0.000     0.000
 C      1   0   0   1.477036     0.000     0.000
 C      2   1   0   1.358447   133.825     0.000
 O      3   2   1   1.351887   131.445     0.000
 C      3   2   1   1.414446   104.209   179.999
 N      5   3   2   1.301855   111.332     0.000
 O      2   1   3   1.347455   117.772   179.998
 H      1   2   3   1.092014   110.667     0.031
 H      1   2   3   1.093017   111.250   240.194
 H      1   2   3   1.093013   111.248   119.866
 H      4   3   2   0.960869   109.693     0.000
 H      5   3   2   1.080124   128.499   179.999

---------------------------
INTERNAL COORDINATES (A.U.)
---------------------------
 C      0   0   0   0.000000     0.000     0.000
 C      1   0   0   2.791194     0.000     0.000
 C      2   1   0   2.567093   133.825     0.000
 O      3   2   1   2.554696   131.445     0.000
 C      3   2   1   2.672915   104.209   179.999
 N      5   3   2   2.460150   111.332     0.000
 O      2   1   3   2.546321   117.772   179.998
 H      1   2   3   2.063607   110.667     0.031
 H      1   2   3   2.065502   111.250   240.194
 H      1   2   3   2.065496   111.248   119.866
 H      4   3   2   1.815779   109.693     0.000
 H      5   3   2   2.041139   128.499   179.999



           ************************************************************
           *        Program running with 2 parallel MPI-processes     *
           *              working on a common directory               *
           ************************************************************
------------------------------------------------------------------------------
                           ORCA GTO INTEGRAL CALCULATION
                           -- RI-GTO INTEGRALS CHOSEN --
------------------------------------------------------------------------------

                         BASIS SET STATISTICS AND STARTUP INFO

Gaussian basis set:
 # of primitive gaussian shells          ...  109
 # of primitive gaussian functions       ...  203
 # of contracted shells                  ...   57
 # of contracted basis functions         ...  123
 Highest angular momentum                ...    2
 Maximum contraction depth               ...    5
Auxiliary gaussian basis set:
 # of primitive gaussian shells          ...  208
 # of primitive gaussian functions       ...  570
 # of contracted shells                  ...  130
 # of contracted aux-basis functions     ...  398
 Highest angular momentum                ...    4
 Maximum contraction depth               ...    7
Ratio of auxiliary to basis functions    ...  3.24
Integral package used                  ... LIBINT
 One Electron integrals                  ... done
 Ordering auxiliary basis shells         ... done
 Integral threshhold             Thresh  ...  1.000e-10
 Primitive cut-off               TCut    ...  1.000e-11
 Pre-screening matrix                    ... done
 Shell pair data                         ... 
 Ordering of the shell pairs             ... done (   0.000 sec) 1605 of 1653 pairs
 Determination of significant pairs      ... done (   0.000 sec)
 Creation of shell pair data             ... done (   0.000 sec)
 Storage of shell pair data              ... done (   0.000 sec)
 Shell pair data done in (   0.001 sec)
 Computing two index integrals           ... done
 Cholesky decomposition of the V-matrix  ... done


Timings:
 Total evaluation time                   ...   0.147 sec (  0.002 min)
 One electron matrix time                ...   0.013 sec (  0.000 min) =  8.9%
 Schwartz matrix evaluation time         ...   0.070 sec (  0.001 min) = 47.4%
 Two index repulsion integral time       ...   0.007 sec (  0.000 min) =  4.7%
 Cholesky decomposition of V             ...   0.003 sec (  0.000 min) =  1.8%
 Three index repulsion integral time     ...   0.000 sec (  0.000 min) =  0.0%

           ************************************************************
           *              Shut down parallel processing               *
           ************************************************************


           ************************************************************
           *        Program running with 2 parallel MPI-processes     *
           *              working on a common directory               *
           ************************************************************
-------------------------------------------------------------------------------
                                 ORCA SCF
-------------------------------------------------------------------------------

------------
SCF SETTINGS
------------
Hamiltonian:
 Density Functional     Method          .... DFT(GTOs)
 Exchange Functional    Exchange        .... PBE
   PBE kappa parameter  XKappa          ....  0.804000
 Correlation Functional Correlation     .... PBE
 LDA part of GGA corr.  LDAOpt          .... PW91-LDA
 Gradients option       PostSCFGGA      .... off
   NL short-range parameter             ....  6.400000
 RI-approximation to the Coulomb term is turned on
   Number of auxiliary basis functions  .... 398


General Settings:
 Integral files         IntName         .... 4921
 Hartree-Fock type      HFTyp           .... RHF
 Total Charge           Charge          ....    0
 Multiplicity           Mult            ....    1
 Number of Electrons    NEL             ....   52
 Basis Dimension        Dim             ....  123
 Nuclear Repulsion      ENuc            ....    297.4224882913 Eh

Convergence Acceleration:
 DIIS                   CNVDIIS         .... on
   Start iteration      DIISMaxIt       ....    12
   Startup error        DIISStart       ....  0.200000
   # of expansion vecs  DIISMaxEq       ....     5
   Bias factor          DIISBfac        ....   1.050
   Max. coefficient     DIISMaxC        ....  10.000
 Newton-Raphson         CNVNR           .... off
 SOSCF                  CNVSOSCF        .... on
   Start iteration      SOSCFMaxIt      ....   150
   Startup grad/error   SOSCFStart      ....  0.003300
 Level Shifting         CNVShift        .... on
   Level shift para.    LevelShift      ....    0.2500
   Turn off err/grad.   ShiftErr        ....    0.0010
 Zerner damping         CNVZerner       .... off
 Static damping         CNVDamp         .... on
   Fraction old density DampFac         ....    0.7000
   Max. Damping (<1)    DampMax         ....    0.9800
   Min. Damping (>=0)   DampMin         ....    0.0000
   Turn off err/grad.   DampErr         ....    0.1000
 Fernandez-Rico         CNVRico         .... off

SCF Procedure:
 Maximum # iterations   MaxIter         ....   125
 SCF integral mode      SCFMode         .... Direct
   Integral package                     .... LIBINT
 Reset frequeny         DirectResetFreq ....    20
 Integral Threshold     Thresh          ....  1.000e-10 Eh
 Primitive CutOff       TCut            ....  1.000e-11 Eh

Convergence Tolerance:
 Convergence Check Mode ConvCheckMode   .... Total+1el-Energy
 Energy Change          TolE            ....  1.000e-06 Eh
 1-El. energy change                    ....  1.000e-03 Eh
 Orbital Gradient       TolG            ....  5.000e-05
 Orbital Rotation angle TolX            ....  5.000e-05
 DIIS Error             TolErr          ....  1.000e-06


Diagonalization of the overlap matrix:
Smallest eigenvalue                        ... 8.698e-04
Time for diagonalization                   ...    0.010 sec
Threshold for overlap eigenvalues          ... 1.000e-08
Number of eigenvalues below threshold      ... 0
Time for construction of square roots      ...    0.002 sec
Total time needed                          ...    0.012 sec

-------------------
DFT GRID GENERATION
-------------------

General Integration Accuracy     IntAcc      ...  4.340
Radial Grid Type                 RadialGrid  ... Gauss-Chebyshev
Angular Grid (max. acc.)         AngularGrid ... Lebedev-110
Angular grid pruning method      GridPruning ... 3 (G Style)
Weight generation scheme         WeightScheme... Becke
Basis function cutoff            BFCut       ...    1.0000e-10
Integration weight cutoff        WCut        ...    1.0000e-14
Grids for H and He will be reduced by one unit

# of grid points (after initial pruning)     ...  15728 (   0.0 sec)
# of grid points (after weights+screening)   ...  14805 (   0.0 sec)
nearest neighbour list constructed           ...    0.0 sec
Grid point re-assignment to atoms done       ...    0.0 sec
Grid point division into batches done        ...    0.0 sec
Reduced shell lists constructed in    0.1 sec

Total number of grid points                  ...    14805
Total number of batches                      ...      236
Average number of points per batch           ...       62
Average number of grid points per atom       ...     1234
Average number of shells per batch           ...    45.54 (79.89%)
Average number of basis functions per batch  ...    99.39 (80.80%)
Average number of large shells per batch     ...    37.50 (82.34%)
Average number of large basis fcns per batch ...    80.87 (81.37%)
Maximum spatial batch extension              ...  15.65, 16.66, 18.40 au
Average spatial batch extension              ...   1.35,  1.45,  1.81 au

Time for grid setup =    0.114 sec

------------------------------
INITIAL GUESS: MODEL POTENTIAL
------------------------------
Loading Hartree-Fock densities                     ... done
Calculating cut-offs                               ... done
Setting up the integral package                    ... done
Initializing the effective Hamiltonian             ... done
Starting the Coulomb interaction                   ... done (   0.0 sec)
Reading the grid                                   ... done
Mapping shells                                     ... done
Starting the XC term evaluation                    ... done (   0.1 sec)
  promolecular density results
     # of electrons  =     51.989858838
     EX              =    -44.798899229
     EC              =     -1.749241286
     EX+EC           =    -46.548140515
Transforming the Hamiltonian                       ... done (   0.0 sec)
Diagonalizing the Hamiltonian                      ... done (   0.0 sec)
Back transforming the eigenvectors                 ... done (   0.0 sec)
Now organizing SCF variables                       ... done
                      ------------------
                      INITIAL GUESS DONE (   0.3 sec)
                      ------------------
--------------
SCF ITERATIONS
--------------
ITER       Energy         Delta-E        Max-DP      RMS-DP      [F,P]     Damp
               ***  Starting incremental Fock matrix formation  ***
  0   -359.7816439067   0.000000000000 0.06819648  0.00243332  0.2091970 0.7000
  1   -359.8368604698  -0.055216563100 0.03995610  0.00165078  0.0845324 0.7000
                               ***Turning on DIIS***
  2   -359.8573678110  -0.020507341215 0.05132323  0.00268110  0.0262724 0.0000
  3   -359.8897484436  -0.032380632593 0.03496097  0.00114128  0.0440982 0.0000
  4   -359.8970676173  -0.007319173659 0.01066946  0.00039500  0.0138448 0.0000
  5   -359.8976427327  -0.000575115454 0.00236517  0.00012759  0.0041107 0.0000
                      *** Initiating the SOSCF procedure ***
                           *** Shutting down DIIS ***
                      *** Re-Reading the Fockian *** 
                      *** Removing any level shift *** 
ITER      Energy       Delta-E        Grad      Rot      Max-DP    RMS-DP
  6   -359.89769293  -0.0000501966  0.000293  0.000293  0.001571  0.000067
               *** Restarting incremental Fock matrix formation ***
  7   -359.89769385  -0.0000009193  0.000342  0.001506  0.002737  0.000066
  8   -359.89768312   0.0000107252  0.000762  0.001098  0.001891  0.000045
  9   -359.89769642  -0.0000133014  0.000167  0.000626  0.000983  0.000021
 10   -359.89769515   0.0000012766  0.000364  0.000439  0.000720  0.000015
 11   -359.89769668  -0.0000015288  0.000026  0.000086  0.000152  0.000005
 12   -359.89769663   0.0000000429  0.000049  0.000053  0.000097  0.000003
                 **** Energy Check signals convergence ****
              ***Rediagonalizing the Fockian in SOSCF/NRSCF***

               *****************************************************
               *                     SUCCESS                       *
               *           SCF CONVERGED AFTER  13 CYCLES          *
               *****************************************************

Setting up the final grid:

General Integration Accuracy     IntAcc      ...  4.670
Radial Grid Type                 RadialGrid  ... Gauss-Chebyshev
Angular Grid (max. acc.)         AngularGrid ... Lebedev-302
Angular grid pruning method      GridPruning ... 3 (G Style)
Weight generation scheme         WeightScheme... Becke
Basis function cutoff            BFCut       ...    1.0000e-10
Integration weight cutoff        WCut        ...    1.0000e-14
Grids for H and He will be reduced by one unit

# of grid points (after initial pruning)     ...  60454 (   0.0 sec)
# of grid points (after weights+screening)   ...  56195 (   0.1 sec)
nearest neighbour list constructed           ...    0.0 sec
Grid point re-assignment to atoms done       ...    0.0 sec
Grid point division into batches done        ...    0.2 sec
Reduced shell lists constructed in    0.4 sec

Total number of grid points                  ...    56195
Total number of batches                      ...      883
Average number of points per batch           ...       63
Average number of grid points per atom       ...     4683
Average number of shells per batch           ...    41.93 (73.56%)
Average number of basis functions per batch  ...    90.84 (73.85%)
Average number of large shells per batch     ...    34.12 (81.36%)
Average number of large basis fcns per batch ...    72.99 (80.35%)
Maximum spatial batch extension              ...  14.94, 16.98, 17.53 au
Average spatial batch extension              ...   0.96,  0.99,  1.14 au

Final grid set up in    0.4 sec
Final integration                            ... done (   0.3 sec)
Change in XC energy                          ...    -0.000760676
Integrated number of electrons               ...    51.999979119
Previous integrated no of electrons          ...    51.994792976

----------------
TOTAL SCF ENERGY
----------------

Total Energy       :         -359.89845738 Eh           -9793.33491 eV

Components:
Nuclear Repulsion  :          297.42248829 Eh            8093.27736 eV
Electronic Energy  :         -657.32094567 Eh          -17886.61227 eV

One Electron Energy:        -1079.00725883 Eh          -29361.28021 eV
Two Electron Energy:          421.68631316 Eh           11474.66794 eV

Virial components:
Potential Energy   :         -717.10862069 Eh          -19513.51762 eV
Kinetic Energy     :          357.21016330 Eh            9720.18271 eV
Virial Ratio       :            2.00752581


DFT components:
N(Alpha)           :       25.999989559553 electrons
N(Beta)            :       25.999989559553 electrons
N(Total)           :       51.999979119107 electrons
E(X)               :      -45.456251734729 Eh       
E(C)               :       -1.763525925100 Eh       
E(XC)              :      -47.219777659829 Eh       

---------------
SCF CONVERGENCE
---------------

  Last Energy change         ...   -7.2494e-08  Tolerance :   1.0000e-06
  Last MAX-Density change    ...    3.8480e-05  Tolerance :   1.0000e-05
  Last RMS-Density change    ...    1.2324e-06  Tolerance :   1.0000e-06
  Last Orbital Gradient      ...    6.6462e-06  Tolerance :   5.0000e-05
  Last Orbital Rotation      ...    3.7662e-05  Tolerance :   5.0000e-05

             **** THE GBW FILE WAS UPDATED (4921.gbw) ****
             **** DENSITY FILE WAS UPDATED (4921.scfp.tmp) ****
             **** ENERGY FILE WAS UPDATED (4921.en.tmp) ****

                    ********************************
                    * MULLIKEN POPULATION ANALYSIS *
                    ********************************

-----------------------
MULLIKEN ATOMIC CHARGES
-----------------------
   0 C :    0.088599
   1 C :   -0.046705
   2 C :    0.000835
   3 O :   -0.155876
   4 C :    0.010197
   5 N :   -0.014828
   6 O :   -0.169056
   7 H :    0.003560
   8 H :    0.054229
   9 H :    0.054183
  10 H :    0.168256
  11 H :    0.006606
Sum of atomic charges:   -0.0000000

--------------------------------
MULLIKEN REDUCED ORBITAL CHARGES
--------------------------------
  0 C s       :     2.893455  s :     2.893455
      pz      :     1.043070  p :     2.992442
      px      :     0.969267
      py      :     0.980106
      dz2     :     0.004777  d :     0.025504
      dxz     :     0.006061
      dyz     :     0.004693
      dx2y2   :     0.005603
      dxy     :     0.004370
  1 C s       :     3.109741  s :     3.109741
      pz      :     1.107487  p :     2.867279
      px      :     0.911021
      py      :     0.848771
      dz2     :     0.005407  d :     0.069686
      dxz     :     0.009566
      dyz     :     0.012703
      dx2y2   :     0.016969
      dxy     :     0.025041
  2 C s       :     3.022034  s :     3.022034
      pz      :     1.086429  p :     2.903409
      px      :     1.020452
      py      :     0.796528
      dz2     :     0.005494  d :     0.073722
      dxz     :     0.006106
      dyz     :     0.020424
      dx2y2   :     0.020146
      dxy     :     0.021552
  3 O s       :     3.674778  s :     3.674778
      pz      :     1.821591  p :     4.467120
      px      :     1.280213
      py      :     1.365316
      dz2     :     0.002045  d :     0.013977
      dxz     :     0.000512
      dyz     :     0.002777
      dx2y2   :     0.006814
      dxy     :     0.001830
  4 C s       :     3.192227  s :     3.192227
      pz      :     1.032959  p :     2.750099
      px      :     0.849178
      py      :     0.867962
      dz2     :     0.003637  d :     0.047477
      dxz     :     0.004715
      dyz     :     0.010310
      dx2y2   :     0.014421
      dxy     :     0.014394
  5 N s       :     3.620555  s :     3.620555
      pz      :     1.201586  p :     3.349604
      px      :     0.920028
      py      :     1.227990
      dz2     :     0.005385  d :     0.044669
      dxz     :     0.006222
      dyz     :     0.007156
      dx2y2   :     0.017199
      dxy     :     0.008707
  6 O s       :     3.773988  s :     3.773988
      pz      :     1.658563  p :     4.369390
      px      :     1.159710
      py      :     1.551116
      dz2     :     0.002887  d :     0.025679
      dxz     :     0.004592
      dyz     :     0.003251
      dx2y2   :     0.006612
      dxy     :     0.008336
  7 H s       :     0.972300  s :     0.972300
      pz      :     0.005757  p :     0.024140
      px      :     0.006879
      py      :     0.011505
  8 H s       :     0.921448  s :     0.921448
      pz      :     0.011191  p :     0.024323
      px      :     0.005334
      py      :     0.007798
  9 H s       :     0.921496  s :     0.921496
      pz      :     0.011214  p :     0.024321
      px      :     0.005364
      py      :     0.007744
 10 H s       :     0.760379  s :     0.760379
      pz      :     0.019706  p :     0.071365
      px      :     0.035963
      py      :     0.015696
 11 H s       :     0.970769  s :     0.970769
      pz      :     0.005159  p :     0.022625
      px      :     0.012611
      py      :     0.004855


                     *******************************
                     * LOEWDIN POPULATION ANALYSIS *
                     *******************************

----------------------
LOEWDIN ATOMIC CHARGES
----------------------
   0 C :   -0.062752
   1 C :   -0.049136
   2 C :   -0.049940
   3 O :   -0.029423
   4 C :   -0.057270
   5 N :   -0.034672
   6 O :    0.031140
   7 H :    0.033976
   8 H :    0.048877
   9 H :    0.048880
  10 H :    0.087589
  11 H :    0.032732

-------------------------------
LOEWDIN REDUCED ORBITAL CHARGES
-------------------------------
  0 C s       :     2.824943  s :     2.824943
      pz      :     1.079946  p :     3.165690
      px      :     1.022788
      py      :     1.062955
      dz2     :     0.013734  d :     0.072120
      dxz     :     0.014577
      dyz     :     0.013561
      dx2y2   :     0.017418
      dxy     :     0.012829
  1 C s       :     2.860334  s :     2.860334
      pz      :     1.075835  p :     3.024817
      px      :     1.004290
      py      :     0.944691
      dz2     :     0.012355  d :     0.163986
      dxz     :     0.016177
      dyz     :     0.026205
      dx2y2   :     0.043972
      dxy     :     0.065277
  2 C s       :     2.832554  s :     2.832554
      pz      :     1.058978  p :     3.038721
      px      :     1.070033
      py      :     0.909710
      dz2     :     0.012427  d :     0.178664
      dxz     :     0.013224
      dyz     :     0.041218
      dx2y2   :     0.054822
      dxy     :     0.056973
  3 O s       :     3.409306  s :     3.409306
      pz      :     1.789947  p :     4.592374
      px      :     1.388176
      py      :     1.414251
      dz2     :     0.004102  d :     0.027744
      dxz     :     0.000233
      dyz     :     0.004352
      dx2y2   :     0.015424
      dxy     :     0.003632
  4 C s       :     2.877054  s :     2.877054
      pz      :     1.009408  p :     3.057546
      px      :     1.028920
      py      :     1.019218
      dz2     :     0.009130  d :     0.122671
      dxz     :     0.008512
      dyz     :     0.020113
      dx2y2   :     0.044715
      dxy     :     0.040199
  5 N s       :     3.340909  s :     3.340909
      pz      :     1.203444  p :     3.605783
      px      :     1.059207
      py      :     1.343132
      dz2     :     0.010979  d :     0.087980
      dxz     :     0.010022
      dyz     :     0.011615
      dx2y2   :     0.037470
      dxy     :     0.017893
  6 O s       :     3.474661  s :     3.474661
      pz      :     1.643875  p :     4.446700
      px      :     1.221578
      py      :     1.581248
      dz2     :     0.005298  d :     0.047499
      dxz     :     0.008177
      dyz     :     0.004080
      dx2y2   :     0.014048
      dxy     :     0.015895
  7 H s       :     0.899375  s :     0.899375
      pz      :     0.013756  p :     0.066649
      px      :     0.019134
      py      :     0.033759
  8 H s       :     0.883613  s :     0.883613
      pz      :     0.031812  p :     0.067510
      px      :     0.015498
      py      :     0.020201
  9 H s       :     0.883611  s :     0.883611
      pz      :     0.031902  p :     0.067509
      px      :     0.015595
      py      :     0.020012
 10 H s       :     0.732071  s :     0.732071
      pz      :     0.050617  p :     0.180339
      px      :     0.094063
      py      :     0.035659
 11 H s       :     0.896273  s :     0.896273
      pz      :     0.015949  p :     0.070996
      px      :     0.037988
      py      :     0.017058


                      *****************************
                      * MAYER POPULATION ANALYSIS *
                      *****************************

  NA   - Mulliken gross atomic population
  ZA   - Total nuclear charge
  QA   - Mulliken gross atomic charge
  VA   - Mayer's total valence
  BVA  - Mayer's bonded valence
  FA   - Mayer's free valence

  ATOM       NA         ZA         QA         VA         BVA        FA
  0 C      5.9114     6.0000     0.0886     3.9514     3.9514     0.0000
  1 C      6.0467     6.0000    -0.0467     3.9663     3.9663    -0.0000
  2 C      5.9992     6.0000     0.0008     4.0485     4.0485    -0.0000
  3 O      8.1559     8.0000    -0.1559     2.2800     2.2800    -0.0000
  4 C      5.9898     6.0000     0.0102     3.9571     3.9571    -0.0000
  5 N      7.0148     7.0000    -0.0148     2.9188     2.9188     0.0000
  6 O      8.1691     8.0000    -0.1691     2.3529     2.3529     0.0000
  7 H      0.9964     1.0000     0.0036     1.0020     1.0020     0.0000
  8 H      0.9458     1.0000     0.0542     0.9927     0.9927    -0.0000
  9 H      0.9458     1.0000     0.0542     0.9928     0.9928    -0.0000
 10 H      0.8317     1.0000     0.1683     1.0206     1.0206    -0.0000
 11 H      0.9934     1.0000     0.0066     0.9996     0.9996     0.0000

  Mayer bond orders larger than 0.1
B(  0-C ,  1-C ) :   1.1367 B(  0-C ,  7-H ) :   0.9396 B(  0-C ,  8-H ) :   0.9329 
B(  0-C ,  9-H ) :   0.9329 B(  1-C ,  2-C ) :   1.4515 B(  1-C ,  5-N ) :   0.1305 
B(  1-C ,  6-O ) :   1.1094 B(  2-C ,  3-O ) :   1.2194 B(  2-C ,  4-C ) :   1.2110 
B(  3-O , 10-H ) :   0.9647 B(  4-C ,  5-N ) :   1.6696 B(  4-C , 11-H ) :   0.9809 
B(  5-N ,  6-O ) :   1.0322 


 *********************************** NBO 6.0 ***********************************
             N A T U R A L   A T O M I C   O R B I T A L   A N D
          N A T U R A L   B O N D   O R B I T A L   A N A L Y S I S
 ***************************** Kiya KiyaLu (100703) ****************************
  (c) Copyright 1996-2015 Board of Regents of the University of Wisconsin System
      on behalf of the Theoretical Chemistry Institute.  All rights reserved.

          Cite this program as:

          NBO 6.0.  E. D. Glendening, J. K. Badenhoop, A. E. Reed,
          J. E. Carpenter, J. A. Bohmann, C. M. Morales, C. R. Landis,
          and F. Weinhold (Theoretical Chemistry Institute, University
          of Wisconsin, Madison, WI, 2013); http://nbo6.chem.wisc.edu/

       /NPA    / : Natural Population Analysis
       /NBO    / : Natural Bond Orbital Analysis
       /AONBO  / : Write the AO to NBO transformation to lfn77
       /FILE   / : Set to 4921

 Filename set to 4921

 Job title:  *** NBO job generated by orca_scf

 Warning: MOs are non-orthogonal; program will continue

 Warning: -2180.42352 electrons reside outside the linearly independent MO space


 NATURAL POPULATIONS:  Natural atomic orbital occupancies

  NAO Atom No lang   Type(AO)    Occupancy      Energy
 -------------------------------------------------------
   1    C  1  s      Cor( 1s)     1.99917      -9.80488
   2    C  1  s      Val( 2s)     1.09056      -0.24022
   3    C  1  s      Ryd( 3s)     0.00027       0.81844
   4    C  1  px     Val( 2p)     1.10655      -0.09614
   5    C  1  px     Ryd( 3p)     0.00101       0.42474
   6    C  1  py     Val( 2p)     1.24040      -0.09801
   7    C  1  py     Ryd( 3p)     0.00321       0.55116
   8    C  1  pz     Val( 2p)     1.24941      -0.09682
   9    C  1  pz     Ryd( 3p)     0.00148       0.52496
  10    C  1  dxy    Ryd( 3d)     0.00030       2.20432
  11    C  1  dxz    Ryd( 3d)     0.00055       2.04350
  12    C  1  dyz    Ryd( 3d)     0.00047       2.24651
  13    C  1  dx2y2  Ryd( 3d)     0.00055       2.20101
  14    C  1  dz2    Ryd( 3d)     0.00050       2.22458

  15    C  2  s      Cor( 1s)     1.99878      -9.83528
  16    C  2  s      Val( 2s)     0.82955      -0.13858
  17    C  2  s      Ryd( 3s)     0.00362       0.50433
  18    C  2  px     Val( 2p)     0.98743      -0.06830
  19    C  2  px     Ryd( 3p)     0.00503       0.86452
  20    C  2  py     Val( 2p)     0.84414      -0.05233
  21    C  2  py     Ryd( 3p)     0.00711       0.64940
  22    C  2  pz     Val( 2p)     1.08101      -0.12885
  23    C  2  pz     Ryd( 3p)     0.00234       0.53876
  24    C  2  dxy    Ryd( 3d)     0.00195       2.36393
  25    C  2  dxz    Ryd( 3d)     0.00120       1.83432
  26    C  2  dyz    Ryd( 3d)     0.00150       1.82521
  27    C  2  dx2y2  Ryd( 3d)     0.00149       2.24699
  28    C  2  dz2    Ryd( 3d)     0.00083       2.07785

  29    C  3  s      Cor( 1s)     1.99846      -9.83689
  30    C  3  s      Val( 2s)     0.80978      -0.11805
  31    C  3  s      Ryd( 3s)     0.00195       0.55772
  32    C  3  px     Val( 2p)     1.07092      -0.07503
  33    C  3  px     Ryd( 3p)     0.00320       0.69586
  34    C  3  py     Val( 2p)     0.81969      -0.05655
  35    C  3  py     Ryd( 3p)     0.00881       0.66804
  36    C  3  pz     Val( 2p)     1.08526      -0.12552
  37    C  3  pz     Ryd( 3p)     0.00072       0.52513
  38    C  3  dxy    Ryd( 3d)     0.00154       2.33469
  39    C  3  dxz    Ryd( 3d)     0.00059       1.79259
  40    C  3  dyz    Ryd( 3d)     0.00261       1.85263
  41    C  3  dx2y2  Ryd( 3d)     0.00157       2.30567
  42    C  3  dz2    Ryd( 3d)     0.00080       2.09805

  43    O  4  s      Cor( 1s)     1.99967     -18.60988
  44    O  4  s      Val( 2s)     1.64095      -0.81176
  45    O  4  s      Ryd( 3s)     0.00070       1.53958
  46    O  4  px     Val( 2p)     1.56679      -0.28300
  47    O  4  px     Ryd( 3p)     0.00200       1.25971
  48    O  4  py     Val( 2p)     1.56215      -0.30874
  49    O  4  py     Ryd( 3p)     0.00148       1.01065
  50    O  4  pz     Val( 2p)     1.87330      -0.27488
  51    O  4  pz     Ryd( 3p)     0.00177       0.95067
  52    O  4  dxy    Ryd( 3d)     0.00114       2.80929
  53    O  4  dxz    Ryd( 3d)     0.00059       2.60132
  54    O  4  dyz    Ryd( 3d)     0.00098       2.62431
  55    O  4  dx2y2  Ryd( 3d)     0.00195       3.22510
  56    O  4  dz2    Ryd( 3d)     0.00100       2.89264

  57    C  5  s      Cor( 1s)     1.99911      -9.79936
  58    C  5  s      Val( 2s)     0.93571      -0.15289
  59    C  5  s      Ryd( 3s)     0.00300       0.42922
  60    C  5  px     Val( 2p)     1.14430      -0.05607
  61    C  5  px     Ryd( 3p)     0.00468       0.75435
  62    C  5  py     Val( 2p)     0.94211      -0.03778
  63    C  5  py     Ryd( 3p)     0.00970       0.58705
  64    C  5  pz     Val( 2p)     1.02211      -0.12243
  65    C  5  pz     Ryd( 3p)     0.00178       0.48364
  66    C  5  dxy    Ryd( 3d)     0.00138       2.32351
  67    C  5  dxz    Ryd( 3d)     0.00068       1.82433
  68    C  5  dyz    Ryd( 3d)     0.00140       1.87162
  69    C  5  dx2y2  Ryd( 3d)     0.00114       2.40640
  70    C  5  dz2    Ryd( 3d)     0.00071       2.12184

  71    N  6  s      Cor( 1s)     1.99937     -13.86937
  72    N  6  s      Val( 2s)     1.46507      -0.49491
  73    N  6  s      Ryd( 3s)     0.00225       1.05996
  74    N  6  px     Val( 2p)     1.01757      -0.14248
  75    N  6  px     Ryd( 3p)     0.00584       0.90675
  76    N  6  py     Val( 2p)     1.40550      -0.17427
  77    N  6  py     Ryd( 3p)     0.00550       0.81907
  78    N  6  pz     Val( 2p)     1.23113      -0.18056
  79    N  6  pz     Ryd( 3p)     0.00091       0.77707
  80    N  6  dxy    Ryd( 3d)     0.00217       2.40859
  81    N  6  dxz    Ryd( 3d)     0.00143       2.16135
  82    N  6  dyz    Ryd( 3d)     0.00173       2.23633
  83    N  6  dx2y2  Ryd( 3d)     0.00292       2.76098
  84    N  6  dz2    Ryd( 3d)     0.00178       2.48055

  85    O  7  s      Cor( 1s)     1.99964     -18.64059
  86    O  7  s      Val( 2s)     1.60392      -0.80971
  87    O  7  s      Ryd( 3s)     0.00070       1.47936
  88    O  7  px     Val( 2p)     1.28270      -0.29773
  89    O  7  px     Ryd( 3p)     0.00231       1.34443
  90    O  7  py     Val( 2p)     1.70142      -0.32354
  91    O  7  py     Ryd( 3p)     0.00242       1.02981
  92    O  7  pz     Val( 2p)     1.69278      -0.29400
  93    O  7  pz     Ryd( 3p)     0.00085       0.98215
  94    O  7  dxy    Ryd( 3d)     0.00200       2.99226
  95    O  7  dxz    Ryd( 3d)     0.00073       2.59152
  96    O  7  dyz    Ryd( 3d)     0.00146       2.56975
  97    O  7  dx2y2  Ryd( 3d)     0.00167       2.92215
  98    O  7  dz2    Ryd( 3d)     0.00102       2.80961

  99    H  8  s      Val( 1s)     0.77011       0.02788
 100    H  8  s      Ryd( 2s)     0.00240       0.32668
 101    H  8  px     Ryd( 2p)     0.00039       1.79560
 102    H  8  py     Ryd( 2p)     0.00058       2.14227
 103    H  8  pz     Ryd( 2p)     0.00018       1.66832

 104    H  9  s      Val( 1s)     0.74873       0.04981
 105    H  9  s      Ryd( 2s)     0.00224       0.31214
 106    H  9  px     Ryd( 2p)     0.00021       1.72244
 107    H  9  py     Ryd( 2p)     0.00032       1.86513
 108    H  9  pz     Ryd( 2p)     0.00057       2.08625

 109    H 10  s      Val( 1s)     0.74871       0.04981
 110    H 10  s      Ryd( 2s)     0.00224       0.31214
 111    H 10  px     Ryd( 2p)     0.00021       1.72462
 112    H 10  py     Ryd( 2p)     0.00031       1.86145
 113    H 10  pz     Ryd( 2p)     0.00057       2.08761

 114    H 11  s      Val( 1s)     0.52534       0.05221
 115    H 11  s      Ryd( 2s)     0.00150       0.38731
 116    H 11  px     Ryd( 2p)     0.00185       2.45974
 117    H 11  py     Ryd( 2p)     0.00108       1.75956
 118    H 11  pz     Ryd( 2p)     0.00145       1.58848

 119    H 12  s      Val( 1s)     0.76341       0.05905
 120    H 12  s      Ryd( 2s)     0.00107       0.29175
 121    H 12  px     Ryd( 2p)     0.00073       2.22619
 122    H 12  py     Ryd( 2p)     0.00026       1.97075
 123    H 12  pz     Ryd( 2p)     0.00019       1.59652

   1 low occupancy (<1.9990e) core orbital  found on  C  2
   1 low occupancy (<1.9990e) core orbital  found on  C  3


 Summary of Natural Population Analysis:

                                     Natural Population
             Natural    ---------------------------------------------
  Atom No    Charge        Core      Valence    Rydberg      Total
 --------------------------------------------------------------------
    C  1   -0.69442      1.99917     4.68691    0.00834     6.69442
    C  2    0.23401      1.99878     3.74213    0.02507     5.76599
    C  3    0.19411      1.99846     3.78564    0.02179     5.80589
    O  4   -0.65448      1.99967     6.64319    0.01162     8.65448
    C  5   -0.06783      1.99911     4.04424    0.02448     6.06783
    N  6   -0.14316      1.99937     5.11926    0.02452     7.14316
    O  7   -0.29362      1.99964     6.28082    0.01317     8.29362
    H  8    0.22635      0.00000     0.77011    0.00354     0.77365
    H  9    0.24794      0.00000     0.74873    0.00333     0.75206
    H 10    0.24796      0.00000     0.74871    0.00333     0.75204
    H 11    0.46878      0.00000     0.52534    0.00588     0.53122
    H 12    0.23435      0.00000     0.76341    0.00224     0.76565
 ====================================================================
 * Total *  0.00000     13.99420    37.85849    0.14731    52.00000

                                 Natural Population
 ---------------------------------------------------------
   Core                      13.99420 ( 99.9586% of   14)
   Valence                   37.85849 ( 99.6276% of   38)
   Natural Minimal Basis     51.85269 ( 99.7167% of   52)
   Natural Rydberg Basis      0.14731 (  0.2833% of   52)
 ---------------------------------------------------------

    Atom No         Natural Electron Configuration
 ----------------------------------------------------------------------------
      C  1      [core]2s( 1.09)2p( 3.60)3p( 0.01)
      C  2      [core]2s( 0.83)2p( 2.91)3p( 0.01)3d( 0.01)
      C  3      [core]2s( 0.81)2p( 2.98)3p( 0.01)3d( 0.01)
      O  4      [core]2s( 1.64)2p( 5.00)3p( 0.01)3d( 0.01)
      C  5      [core]2s( 0.94)2p( 3.11)3p( 0.02)3d( 0.01)
      N  6      [core]2s( 1.47)2p( 3.65)3p( 0.01)3d( 0.01)
      O  7      [core]2s( 1.60)2p( 4.68)3p( 0.01)3d( 0.01)
      H  8            1s( 0.77)
      H  9            1s( 0.75)
      H 10            1s( 0.75)
      H 11            1s( 0.53)
      H 12            1s( 0.76)


 NATURAL BOND ORBITAL ANALYSIS:

                            Occupancies       Lewis Structure    Low   High
         Max    Occ     -------------------  -----------------   occ   occ
  Cycle  Ctr   Thresh    Lewis   non-Lewis     CR  BD  nC  LP    (L)   (NL)
 ============================================================================
    1     2     1.90    50.45840   1.54160      7  16   0   3     1      2
    2     2     1.87    50.46756   1.53244      7  14   0   5     1      2
    3     2     1.80    50.94534   1.05466      7  14   0   5     1      2
    4     2     1.76    50.94534   1.05466      7  14   0   5     1      2
    5     2     1.69    50.94534   1.05466      7  14   0   5     0      2
    6     2     1.57    50.94534   1.05466      7  14   0   5     0      2
    7     2     1.53    50.94534   1.05466      7  14   0   5     0      2
    8     2     1.50    50.94534   1.05466      7  14   0   5     0      2
    9     2     1.80    50.94534   1.05466      7  14   0   5     1      2
 ----------------------------------------------------------------------------

 Strongly delocalized structure accepted

 -------------------------------------------------------
   Core                     13.99420 ( 99.959% of  14)
   Valence Lewis            36.95114 ( 97.240% of  38)
  ==================      =============================
   Total Lewis              50.94534 ( 97.972% of  52)
  -----------------------------------------------------
   Valence non-Lewis         0.96874 (  1.863% of  52)
   Rydberg non-Lewis         0.08592 (  0.165% of  52)
  ==================      =============================
   Total non-Lewis           1.05466 (  2.028% of  52)
 -------------------------------------------------------


     (Occupancy)   Bond orbital / Coefficients / Hybrids
 ------------------ Lewis ------------------------------------------------------
   1. (1.99917) CR ( 1) C  1            s(100.00%)
                                         1.0000  0.0000  0.0000  0.0000  0.0000
                                         0.0000  0.0000  0.0000  0.0000  0.0000
                                         0.0000  0.0000  0.0000  0.0000
   2. (1.99878) CR ( 1) C  2            s(100.00%)
                                         1.0000  0.0000  0.0000  0.0000  0.0000
                                         0.0000  0.0000  0.0000  0.0000  0.0000
                                         0.0000  0.0000  0.0000  0.0000
   3. (1.99846) CR ( 1) C  3            s(100.00%)
                                         1.0000  0.0000  0.0000  0.0000  0.0000
                                         0.0000  0.0000  0.0000  0.0000  0.0000
                                         0.0000  0.0000  0.0000  0.0000
   4. (1.99967) CR ( 1) O  4            s(100.00%)
                                         1.0000  0.0000  0.0000  0.0000  0.0000
                                         0.0000  0.0000  0.0000  0.0000  0.0000
                                         0.0000  0.0000  0.0000  0.0000
   5. (1.99911) CR ( 1) C  5            s(100.00%)
                                         1.0000  0.0000  0.0000  0.0000  0.0000
                                         0.0000  0.0000  0.0000  0.0000  0.0000
                                         0.0000  0.0000  0.0000  0.0000
   6. (1.99937) CR ( 1) N  6            s(100.00%)
                                         1.0000  0.0000  0.0000  0.0000  0.0000
                                         0.0000  0.0000  0.0000  0.0000  0.0000
                                         0.0000  0.0000  0.0000  0.0000
   7. (1.99964) CR ( 1) O  7            s(100.00%)
                                         1.0000  0.0000  0.0000  0.0000  0.0000
                                         0.0000  0.0000  0.0000  0.0000  0.0000
                                         0.0000  0.0000  0.0000  0.0000
   8. (1.97239) LP ( 1) O  4            s( 44.10%)p 1.27( 55.84%)d 0.00(  0.05%)
                                         0.0000  0.6641 -0.0071  0.4564 -0.0072
                                         0.5916 -0.0082  0.0009  0.0000 -0.0213
                                        -0.0001  0.0000  0.0048  0.0065
   9. (1.87511) LP ( 2) O  4            s(  0.00%)p 1.00( 99.93%)d 0.00(  0.07%)
                                         0.0000  0.0001  0.0000 -0.0038  0.0000
                                         0.0045 -0.0001 -0.9995  0.0143  0.0000
                                         0.0175  0.0210  0.0002  0.0000
  10. (1.95170) LP ( 1) N  6            s( 44.01%)p 1.27( 55.91%)d 0.00(  0.08%)
                                         0.0000  0.6631 -0.0195  0.4625  0.0247
                                        -0.5867 -0.0170 -0.0043 -0.0002  0.0250
                                         0.0002 -0.0002  0.0017  0.0145
  11. (1.97386) LP ( 1) O  7            s( 41.58%)p 1.40( 58.38%)d 0.00(  0.05%)
                                         0.0000  0.6448 -0.0033 -0.1902  0.0087
                                        -0.7398  0.0110 -0.0027  0.0000 -0.0093
                                         0.0000 -0.0001  0.0170  0.0092
  12. (1.69416) LP ( 2) O  7            s(  0.00%)p 1.00( 99.92%)d 0.00(  0.08%)
                                         0.0000  0.0000  0.0000  0.0035  0.0000
                                        -0.0045  0.0000  0.9996 -0.0010  0.0001
                                         0.0067  0.0276  0.0001  0.0002
  13. (1.98088) BD ( 1) C  1- C  2
               ( 49.93%)   0.7066* C  1 s( 30.13%)p 2.32( 69.83%)d 0.00(  0.04%)
                                         0.0000  0.5488  0.0050  0.8300  0.0049
                                         0.0973 -0.0029 -0.0025  0.0000  0.0040
                                        -0.0001  0.0000  0.0170 -0.0105
               ( 50.07%)   0.7076* C  2 s( 37.29%)p 1.68( 62.68%)d 0.00(  0.03%)
                                         0.0000  0.6106  0.0062 -0.7856  0.0125
                                        -0.0960 -0.0181  0.0024 -0.0001  0.0068
                                        -0.0001  0.0000  0.0110 -0.0104
  14. (1.97859) BD ( 1) C  1- H  8
               ( 61.22%)   0.7825* C  1 s( 22.96%)p 3.35( 77.00%)d 0.00(  0.04%)
                                         0.0000  0.4792 -0.0030 -0.4077 -0.0162
                                         0.7768 -0.0088  0.0045  0.0000 -0.0102
                                        -0.0001  0.0002 -0.0120 -0.0103
               ( 38.78%)   0.6227* H  8 s( 99.91%)p 0.00(  0.09%)
                                         0.9995 -0.0014  0.0182 -0.0245 -0.0002
  15. (1.97476) BD ( 1) C  1- H  9
               ( 62.45%)   0.7903* C  1 s( 23.45%)p 3.26( 76.52%)d 0.00(  0.03%)
                                         0.0000  0.4842 -0.0006 -0.2660 -0.0082
                                        -0.4425  0.0030  0.7061 -0.0062  0.0027
                                        -0.0057 -0.0134 -0.0028  0.0099
               ( 37.55%)   0.6128* H  9 s( 99.90%)p 0.00(  0.10%)
                                         0.9995 -0.0033  0.0102  0.0157 -0.0249
  16. (1.97476) BD ( 1) C  1- H 10
               ( 62.45%)   0.7903* C  1 s( 23.45%)p 3.26( 76.52%)d 0.00(  0.03%)
                                         0.0000  0.4842 -0.0006 -0.2709 -0.0082
                                        -0.4368  0.0029 -0.7078  0.0063  0.0028
                                         0.0059  0.0132 -0.0027  0.0100
               ( 37.55%)   0.6128* H 10 s( 99.90%)p 0.00(  0.10%)
                                         0.9995 -0.0033  0.0103  0.0155  0.0250
  17. (1.97667) BD ( 1) C  2- C  3
               ( 49.87%)   0.7062* C  2 s( 38.68%)p 1.58( 61.28%)d 0.00(  0.05%)
                                         0.0000  0.6219 -0.0083  0.4009 -0.0241
                                         0.6718  0.0078  0.0016  0.0001  0.0164
                                         0.0000  0.0001 -0.0022 -0.0139
               ( 50.13%)   0.7080* C  3 s( 37.61%)p 1.66( 62.34%)d 0.00(  0.05%)
                                         0.0000  0.6133 -0.0014 -0.5747 -0.0092
                                        -0.5409  0.0199 -0.0004  0.0001  0.0147
                                         0.0000  0.0001 -0.0054 -0.0162
  18. (1.80356) BD ( 2) C  2- C  3
               ( 49.86%)   0.7061* C  2 s(  0.00%)p 1.00( 99.93%)d 0.00(  0.07%)
                                         0.0000  0.0000  0.0000  0.0036  0.0001
                                        -0.0045  0.0000  0.9996 -0.0111  0.0000
                                         0.0218  0.0153  0.0001  0.0000
               ( 50.14%)   0.7081* C  3 s(  0.00%)p 1.00( 99.92%)d 0.00(  0.08%)
                                         0.0000  0.0000  0.0000  0.0036  0.0000
                                        -0.0045  0.0000  0.9995 -0.0100 -0.0001
                                        -0.0076 -0.0273 -0.0002 -0.0002
  19. (1.98770) BD ( 1) C  2- O  7
               ( 31.44%)   0.5607* C  2 s( 23.86%)p 3.18( 75.89%)d 0.01(  0.25%)
                                         0.0000  0.4883  0.0147  0.4702  0.0009
                                        -0.7314 -0.0539 -0.0049 -0.0003 -0.0393
                                        -0.0003  0.0004 -0.0099 -0.0287
               ( 68.56%)   0.8280* O  7 s( 35.06%)p 1.85( 64.84%)d 0.00(  0.09%)
                                         0.0000  0.5921  0.0033 -0.4875 -0.0155
                                         0.6407 -0.0082  0.0046  0.0000 -0.0188
                                        -0.0001  0.0003 -0.0172 -0.0169
  20. (1.99314) BD ( 1) C  3- O  4
               ( 33.31%)   0.5771* C  3 s( 28.41%)p 2.51( 71.41%)d 0.01(  0.18%)
                                         0.0000  0.5327  0.0165 -0.2002  0.0057
                                         0.8192  0.0544  0.0044  0.0002 -0.0170
                                        -0.0001  0.0004 -0.0305 -0.0242
               ( 66.69%)   0.8167* O  4 s( 35.96%)p 1.78( 63.95%)d 0.00(  0.09%)
                                         0.0000  0.5997  0.0022  0.1470  0.0048
                                        -0.7860 -0.0024 -0.0040  0.0000  0.0017
                                         0.0000  0.0002 -0.0228 -0.0185
  21. (1.96314) BD ( 1) C  3- C  5
               ( 50.89%)   0.7134* C  3 s( 33.45%)p 1.99( 66.51%)d 0.00(  0.04%)
                                         0.0000  0.5784 -0.0040  0.7931 -0.0005
                                        -0.1853  0.0419 -0.0037  0.0002 -0.0109
                                        -0.0002  0.0001  0.0089 -0.0144
               ( 49.11%)   0.7008* C  5 s( 36.20%)p 1.76( 63.75%)d 0.00(  0.05%)
                                         0.0000  0.6017 -0.0024 -0.6946  0.0239
                                         0.3915  0.0352  0.0042  0.0001 -0.0101
                                        -0.0002  0.0001  0.0138 -0.0149
  22. (1.98545) BD ( 1) O  4- H 11
               ( 73.80%)   0.8590* O  4 s( 19.91%)p 4.02( 79.97%)d 0.01(  0.12%)
                                         0.0000  0.4460  0.0131 -0.8760 -0.0245
                                         0.1758  0.0282  0.0042  0.0002  0.0084
                                        -0.0002  0.0000  0.0281 -0.0175
               ( 26.20%)   0.5119* H 11 s( 99.64%)p 0.00(  0.36%)
                                         0.9982 -0.0048  0.0571 -0.0176 -0.0003
  23. (1.98857) BD ( 1) C  5- N  6
               ( 40.96%)   0.6400* C  5 s( 31.14%)p 2.21( 68.74%)d 0.00(  0.12%)
                                         0.0000  0.5571  0.0319  0.0159  0.0488
                                        -0.8259 -0.0507 -0.0038 -0.0004  0.0066
                                         0.0000  0.0003 -0.0268 -0.0221
               ( 59.04%)   0.7684* N  6 s( 40.45%)p 1.47( 59.39%)d 0.00(  0.15%)
                                         0.0000  0.6356  0.0223  0.0657 -0.0306
                                         0.7672 -0.0054  0.0032  0.0001 -0.0096
                                        -0.0001  0.0003 -0.0306 -0.0220
  24. (1.91930) BD ( 2) C  5- N  6
               ( 43.37%)   0.6586* C  5 s(  0.00%)p 1.00( 99.85%)d 0.00(  0.15%)
                                         0.0000  0.0000  0.0001 -0.0035  0.0000
                                         0.0045 -0.0001 -0.9988  0.0296  0.0001
                                         0.0108  0.0375  0.0002  0.0002
               ( 56.63%)   0.7525* N  6 s(  0.00%)p 1.00( 99.80%)d 0.00(  0.20%)
                                         0.0000  0.0000  0.0000 -0.0035  0.0000
                                         0.0045  0.0000 -0.9990  0.0028 -0.0002
                                         0.0222 -0.0391 -0.0001 -0.0004
  25. (1.97372) BD ( 1) C  5- H 12
               ( 61.84%)   0.7864* C  5 s( 32.51%)p 2.08( 67.47%)d 0.00(  0.02%)
                                         0.0000  0.5700 -0.0155  0.7180  0.0012
                                         0.3986 -0.0133 -0.0007 -0.0001  0.0086
                                         0.0000  0.0000  0.0090 -0.0090
               ( 38.16%)   0.6177* H 12 s( 99.89%)p 0.00(  0.11%)
                                         0.9995 -0.0016 -0.0288 -0.0156  0.0000
  26. (1.98367) BD ( 1) N  6- O  7
               ( 37.97%)   0.6162* N  6 s( 15.63%)p 5.38( 84.05%)d 0.02(  0.33%)
                                         0.0000  0.3942  0.0296 -0.8789  0.0411
                                        -0.2491  0.0655  0.0020  0.0002  0.0009
                                        -0.0004  0.0000  0.0479 -0.0314
               ( 62.03%)   0.7876* O  7 s( 23.32%)p 3.28( 76.56%)d 0.01(  0.12%)
                                         0.0000  0.4829  0.0059  0.8506  0.0243
                                         0.2017 -0.0291 -0.0021 -0.0002  0.0267
                                         0.0000  0.0000  0.0138 -0.0187
 ---------------- non-Lewis ----------------------------------------------------
  27. (0.02070) BD*( 1) C  1- C  2
               ( 50.07%)   0.7076* C  1 s( 30.13%)p 2.32( 69.83%)d 0.00(  0.04%)
                                         0.0000 -0.5488 -0.0050 -0.8300 -0.0049
                                        -0.0973  0.0029  0.0025  0.0000 -0.0040
                                         0.0001  0.0000 -0.0170  0.0105
               ( 49.93%)  -0.7066* C  2 s( 37.29%)p 1.68( 62.68%)d 0.00(  0.03%)
                                         0.0000 -0.6106 -0.0062  0.7856 -0.0125
                                         0.0960  0.0181 -0.0024  0.0001 -0.0068
                                         0.0001  0.0000 -0.0110  0.0104
  28. (0.00594) BD*( 1) C  1- H  8
               ( 38.78%)   0.6227* C  1 s( 22.96%)p 3.35( 77.00%)d 0.00(  0.04%)
                                         0.0000 -0.4792  0.0030  0.4077  0.0162
                                        -0.7768  0.0088 -0.0045  0.0000  0.0102
                                         0.0001 -0.0002  0.0120  0.0103
               ( 61.22%)  -0.7825* H  8 s( 99.91%)p 0.00(  0.09%)
                                        -0.9995  0.0014 -0.0182  0.0245  0.0002
  29. (0.01272) BD*( 1) C  1- H  9
               ( 37.55%)   0.6128* C  1 s( 23.45%)p 3.26( 76.52%)d 0.00(  0.03%)
                                         0.0000 -0.4842  0.0006  0.2660  0.0082
                                         0.4425 -0.0030 -0.7061  0.0062 -0.0027
                                         0.0057  0.0134  0.0028 -0.0099
               ( 62.45%)  -0.7903* H  9 s( 99.90%)p 0.00(  0.10%)
                                        -0.9995  0.0033 -0.0102 -0.0157  0.0249
  30. (0.01271) BD*( 1) C  1- H 10
               ( 37.55%)   0.6128* C  1 s( 23.45%)p 3.26( 76.52%)d 0.00(  0.03%)
                                         0.0000 -0.4842  0.0006  0.2709  0.0082
                                         0.4368 -0.0029  0.7078 -0.0063 -0.0028
                                        -0.0059 -0.0132  0.0027 -0.0100
               ( 62.45%)  -0.7903* H 10 s( 99.90%)p 0.00(  0.10%)
                                        -0.9995  0.0033 -0.0103 -0.0155 -0.0250
  31. (0.04057) BD*( 1) C  2- C  3
               ( 50.13%)   0.7080* C  2 s( 38.68%)p 1.58( 61.28%)d 0.00(  0.05%)
                                         0.0000  0.6219 -0.0083  0.4009 -0.0241
                                         0.6718  0.0078  0.0016  0.0001  0.0164
                                         0.0000  0.0001 -0.0022 -0.0139
               ( 49.87%)  -0.7062* C  3 s( 37.61%)p 1.66( 62.34%)d 0.00(  0.05%)
                                         0.0000  0.6133 -0.0014 -0.5747 -0.0092
                                        -0.5409  0.0199 -0.0004  0.0001  0.0147
                                         0.0000  0.0001 -0.0054 -0.0162
  32. (0.36353) BD*( 2) C  2- C  3
               ( 50.14%)   0.7081* C  2 s(  0.00%)p 1.00( 99.93%)d 0.00(  0.07%)
                                         0.0000  0.0000  0.0000 -0.0036 -0.0001
                                         0.0045  0.0000 -0.9996  0.0111  0.0000
                                        -0.0218 -0.0153 -0.0001  0.0000
               ( 49.86%)  -0.7061* C  3 s(  0.00%)p 1.00( 99.92%)d 0.00(  0.08%)
                                         0.0000  0.0000  0.0000 -0.0036  0.0000
                                         0.0045  0.0000 -0.9995  0.0100  0.0001
                                         0.0076  0.0273  0.0002  0.0002
  33. (0.04805) BD*( 1) C  2- O  7
               ( 68.56%)   0.8280* C  2 s( 23.86%)p 3.18( 75.89%)d 0.01(  0.25%)
                                         0.0000  0.4883  0.0147  0.4702  0.0009
                                        -0.7314 -0.0539 -0.0049 -0.0003 -0.0393
                                        -0.0003  0.0004 -0.0099 -0.0287
               ( 31.44%)  -0.5607* O  7 s( 35.06%)p 1.85( 64.84%)d 0.00(  0.09%)
                                         0.0000  0.5921  0.0033 -0.4875 -0.0155
                                         0.6407 -0.0082  0.0046  0.0000 -0.0188
                                        -0.0001  0.0003 -0.0172 -0.0169
  34. (0.02150) BD*( 1) C  3- O  4
               ( 66.69%)   0.8167* C  3 s( 28.41%)p 2.51( 71.41%)d 0.01(  0.18%)
                                         0.0000  0.5327  0.0165 -0.2002  0.0057
                                         0.8192  0.0544  0.0044  0.0002 -0.0170
                                        -0.0001  0.0004 -0.0305 -0.0242
               ( 33.31%)  -0.5771* O  4 s( 35.96%)p 1.78( 63.95%)d 0.00(  0.09%)
                                         0.0000  0.5997  0.0022  0.1470  0.0048
                                        -0.7860 -0.0024 -0.0040  0.0000  0.0017
                                         0.0000  0.0002 -0.0228 -0.0185
  35. (0.03652) BD*( 1) C  3- C  5
               ( 49.11%)   0.7008* C  3 s( 33.45%)p 1.99( 66.51%)d 0.00(  0.04%)
                                         0.0000 -0.5784  0.0040 -0.7931  0.0005
                                         0.1853 -0.0419  0.0037 -0.0002  0.0109
                                         0.0002 -0.0001 -0.0089  0.0144
               ( 50.89%)  -0.7134* C  5 s( 36.20%)p 1.76( 63.75%)d 0.00(  0.05%)
                                         0.0000 -0.6017  0.0024  0.6946 -0.0239
                                        -0.3915 -0.0352 -0.0042 -0.0001  0.0101
                                         0.0002 -0.0001 -0.0138  0.0149
  36. (0.00930) BD*( 1) O  4- H 11
               ( 26.20%)   0.5119* O  4 s( 19.91%)p 4.02( 79.97%)d 0.01(  0.12%)
                                         0.0000 -0.4460 -0.0131  0.8760  0.0245
                                        -0.1758 -0.0282 -0.0042 -0.0002 -0.0084
                                         0.0002  0.0000 -0.0281  0.0175
               ( 73.80%)  -0.8590* H 11 s( 99.64%)p 0.00(  0.36%)
                                        -0.9982  0.0048 -0.0571  0.0176  0.0003
  37. (0.01022) BD*( 1) C  5- N  6
               ( 59.04%)   0.7684* C  5 s( 31.14%)p 2.21( 68.74%)d 0.00(  0.12%)
                                         0.0000  0.5571  0.0319  0.0159  0.0488
                                        -0.8259 -0.0507 -0.0038 -0.0004  0.0066
                                         0.0000  0.0003 -0.0268 -0.0221
               ( 40.96%)  -0.6400* N  6 s( 40.45%)p 1.47( 59.39%)d 0.00(  0.15%)
                                         0.0000  0.6356  0.0223  0.0657 -0.0306
                                         0.7672 -0.0054  0.0032  0.0001 -0.0096
                                        -0.0001  0.0003 -0.0306 -0.0220
  38. (0.33750) BD*( 2) C  5- N  6
               ( 56.63%)   0.7525* C  5 s(  0.00%)p 1.00( 99.85%)d 0.00(  0.15%)
                                         0.0000  0.0000  0.0001 -0.0035  0.0000
                                         0.0045 -0.0001 -0.9988  0.0296  0.0001
                                         0.0108  0.0375  0.0002  0.0002
               ( 43.37%)  -0.6586* N  6 s(  0.00%)p 1.00( 99.80%)d 0.00(  0.20%)
                                         0.0000  0.0000  0.0000 -0.0035  0.0000
                                         0.0045  0.0000 -0.9990  0.0028 -0.0002
                                         0.0222 -0.0391 -0.0001 -0.0004
  39. (0.01792) BD*( 1) C  5- H 12
               ( 38.16%)   0.6177* C  5 s( 32.51%)p 2.08( 67.47%)d 0.00(  0.02%)
                                         0.0000 -0.5700  0.0155 -0.7180 -0.0012
                                        -0.3986  0.0133  0.0007  0.0001 -0.0086
                                         0.0000  0.0000 -0.0090  0.0090
               ( 61.84%)  -0.7864* H 12 s( 99.89%)p 0.00(  0.11%)
                                        -0.9995  0.0016  0.0288  0.0156  0.0000
  40. (0.03155) BD*( 1) N  6- O  7
               ( 62.03%)   0.7876* N  6 s( 15.63%)p 5.38( 84.05%)d 0.02(  0.33%)
                                         0.0000  0.3942  0.0296 -0.8789  0.0411
                                        -0.2491  0.0655  0.0020  0.0002  0.0009
                                        -0.0004  0.0000  0.0479 -0.0314
               ( 37.97%)  -0.6162* O  7 s( 23.32%)p 3.28( 76.56%)d 0.01(  0.12%)
                                         0.0000  0.4829  0.0059  0.8506  0.0243
                                         0.2017 -0.0291 -0.0021 -0.0002  0.0267
                                         0.0000  0.0000  0.0138 -0.0187
  41. (0.00332) RY ( 1) C  1            s(  0.14%)p99.99( 96.47%)d24.89(  3.40%)
                                         0.0000 -0.0009  0.0369 -0.0026  0.1553
                                        -0.0104 -0.9697 -0.0001 -0.0059 -0.1814
                                        -0.0013  0.0004  0.0320 -0.0065
  42. (0.00195) RY ( 2) C  1            s(  0.00%)p 1.00( 73.21%)d 0.37( 26.79%)
                                         0.0000  0.0000  0.0012  0.0000  0.0041
                                         0.0000 -0.0046  0.0143  0.8555 -0.0020
                                         0.4975  0.1428  0.0025 -0.0020
  43. (0.00060) RY ( 3) C  1            s( 26.11%)p 2.77( 72.21%)d 0.06(  1.68%)
                                         0.0000  0.0108  0.5108 -0.0184  0.8353
                                         0.0060  0.1548  0.0000 -0.0034  0.0137
                                        -0.0015 -0.0004  0.1146 -0.0592
  44. (0.00011) RY ( 4) C  1            s( 62.04%)p 0.31( 19.26%)d 0.30( 18.70%)
                                         0.0000 -0.0060  0.7876  0.0097 -0.4387
                                        -0.0068  0.0037 -0.0001  0.0009 -0.2882
                                        -0.0003  0.0029 -0.3155 -0.0664
  45. (0.00002) RY ( 5) C  1            s(  2.62%)p 1.21(  3.16%)d35.96( 94.22%)
  46. (0.00002) RY ( 6) C  1            s(  0.02%)p99.99( 26.70%)d99.99( 73.27%)
  47. (0.00002) RY ( 7) C  1            s(  7.56%)p 1.17(  8.88%)d11.04( 83.55%)
  48. (0.00001) RY ( 8) C  1            s(  0.00%)p 1.00(  0.03%)d99.99( 99.97%)
  49. (0.00000) RY ( 9) C  1            s(  1.52%)p 0.13(  0.20%)d64.53( 98.27%)
  50. (0.00895) RY ( 1) C  2            s( 30.42%)p 1.96( 59.68%)d 0.33(  9.91%)
                                         0.0000 -0.0163  0.5513  0.0122  0.6075
                                         0.0417 -0.4752  0.0001 -0.0040  0.0021
                                        -0.0015 -0.0011  0.3098 -0.0557
  51. (0.00349) RY ( 2) C  2            s(  5.76%)p16.26( 93.60%)d 0.11(  0.64%)
                                         0.0000  0.0301  0.2380  0.0170  0.4265
                                        -0.0301  0.8677 -0.0002  0.0030  0.0226
                                        -0.0003  0.0003  0.0766  0.0046
  52. (0.00232) RY ( 3) C  2            s(  0.00%)p 1.00( 87.09%)d 0.15( 12.91%)
                                         0.0000  0.0000  0.0013 -0.0001 -0.0037
                                         0.0001  0.0049 -0.0172 -0.9330 -0.0029
                                         0.3540 -0.0618  0.0015 -0.0030
  53. (0.00169) RY ( 4) C  2            s(  0.00%)p 1.00(  1.10%)d90.29( 98.90%)
                                         0.0000  0.0000  0.0010 -0.0001 -0.0016
                                         0.0001  0.0000 -0.0141 -0.1037  0.0032
                                        -0.1013  0.9893  0.0043  0.0080
  54. (0.00132) RY ( 5) C  2            s( 20.06%)p 0.90( 18.07%)d 3.08( 61.87%)
                                         0.0000 -0.0120  0.4478 -0.0200 -0.4136
                                         0.0273  0.0921  0.0003  0.0037 -0.7514
                                        -0.0055  0.0022  0.1216 -0.1980
  55. (0.00075) RY ( 6) C  2            s( 41.75%)p 0.32( 13.35%)d 1.08( 44.90%)
                                         0.0000 -0.0037  0.6461 -0.0029 -0.3642
                                        -0.0152  0.0237  0.0000  0.0024  0.5312
                                         0.0056 -0.0001 -0.4070 -0.0345
  56. (0.00054) RY ( 7) C  2            s(  0.00%)p 1.00( 11.89%)d 7.41( 88.11%)
                                         0.0000  0.0000  0.0013  0.0000 -0.0012
                                        -0.0001  0.0016  0.0185 -0.3443  0.0043
                                        -0.9295 -0.1310 -0.0062  0.0042
  57. (0.00046) RY ( 8) C  2            s(  0.22%)p70.27( 15.34%)d99.99( 84.44%)
                                         0.0000  0.0068  0.0462  0.0133 -0.3801
                                        -0.0297  0.0891 -0.0001  0.0014  0.3311
                                        -0.0021 -0.0069  0.8356  0.1909
  58. (0.00002) RY ( 9) C  2            s(  1.96%)p 0.06(  0.11%)d49.88( 97.93%)
  59. (0.00605) RY ( 1) C  3            s(  2.79%)p33.79( 94.28%)d 1.05(  2.93%)
                                         0.0000 -0.0549  0.1578 -0.0137  0.4681
                                        -0.0292  0.8501 -0.0001  0.0023 -0.1279
                                        -0.0008 -0.0003  0.1136 -0.0071
  60. (0.00277) RY ( 2) C  3            s(  0.00%)p 1.00(  8.61%)d10.62( 91.39%)
                                         0.0000 -0.0001  0.0012 -0.0001 -0.0010
                                         0.0001 -0.0008 -0.0217  0.2926 -0.0041
                                         0.1504 -0.9440 -0.0036 -0.0085
  61. (0.00252) RY ( 3) C  3            s( 25.48%)p 2.89( 73.54%)d 0.04(  0.98%)
                                         0.0000 -0.0277  0.5040  0.0014 -0.7909
                                        -0.0070  0.3312  0.0000  0.0037  0.0130
                                        -0.0012  0.0023  0.0763 -0.0617
  62. (0.00174) RY ( 4) C  3            s( 52.58%)p 0.39( 20.52%)d 0.51( 26.90%)
                                         0.0000  0.0086  0.7250  0.0047  0.3014
                                        -0.0205 -0.3375 -0.0002 -0.0028 -0.4442
                                        -0.0013  0.0039 -0.2319 -0.1340
  63. (0.00128) RY ( 5) C  3            s(  2.98%)p 0.73(  2.19%)d31.84( 94.83%)
                                         0.0000 -0.0156  0.1719  0.0203  0.1009
                                        -0.0108  0.1057 -0.0001  0.0000  0.6594
                                         0.0056  0.0013 -0.7143 -0.0578
  64. (0.00056) RY ( 6) C  3            s(  0.00%)p 1.00(  0.09%)d99.99( 99.91%)
                                         0.0000  0.0001  0.0012  0.0000  0.0005
                                         0.0001 -0.0008  0.0122  0.0274 -0.0013
                                         0.9858  0.1652  0.0075 -0.0044
  65. (0.00042) RY ( 7) C  3            s( 14.80%)p 0.62(  9.21%)d 5.14( 75.99%)
                                         0.0000  0.0249  0.3839  0.0010  0.2326
                                         0.0242 -0.1934  0.0000 -0.0042  0.5913
                                        -0.0035 -0.0066  0.6402  0.0172
  66. (0.00028) RY ( 8) C  3            s(  0.00%)p 1.00( 91.38%)d 0.09(  8.62%)
                                         0.0000  0.0001  0.0011  0.0001  0.0042
                                         0.0000 -0.0049  0.0167  0.9558  0.0029
                                        -0.0744  0.2839  0.0025  0.0027
  67. (0.00001) RY ( 9) C  3            s(  1.90%)p 0.00(  0.01%)d51.52( 98.09%)
  68. (0.00155) RY ( 1) O  4            s(  0.00%)p 1.00( 89.46%)d 0.12( 10.54%)
                                         0.0000  0.0000  0.0012  0.0000  0.0055
                                         0.0000 -0.0040  0.0087  0.9458 -0.0022
                                         0.0967 -0.3099 -0.0007 -0.0031
  69. (0.00128) RY ( 2) O  4            s(  9.16%)p 8.71( 79.81%)d 1.20( 11.03%)
                                         0.0000  0.0052  0.3026 -0.0038  0.8451
                                         0.0034  0.2895  0.0000 -0.0040 -0.2905
                                        -0.0022  0.0012  0.1604 -0.0138
  70. (0.00030) RY ( 3) O  4            s( 77.70%)p 0.25( 19.53%)d 0.04(  2.77%)
                                         0.0000  0.0007  0.8815  0.0060 -0.1295
                                         0.0021 -0.4225  0.0000 -0.0020  0.1476
                                         0.0007 -0.0009  0.0539  0.0547
  71. (0.00007) RY ( 4) O  4            s( 10.56%)p 7.58( 79.97%)d 0.90(  9.47%)
  72. (0.00002) RY ( 5) O  4            s(  0.50%)p 6.88(  3.45%)d99.99( 96.05%)
  73. (0.00001) RY ( 6) O  4            s(  1.20%)p11.28( 13.51%)d71.20( 85.29%)
  74. (0.00000) RY ( 7) O  4            s(  0.00%)p 1.00(  2.76%)d35.23( 97.24%)
  75. (0.00000) RY ( 8) O  4            s(  0.00%)p 1.00(  7.85%)d11.73( 92.15%)
  76. (0.00000) RY ( 9) O  4            s(  0.91%)p 4.35(  3.96%)d99.99( 95.13%)
  77. (0.00852) RY ( 1) C  5            s( 13.59%)p 5.51( 74.85%)d 0.85( 11.56%)
                                         0.0000 -0.0147  0.3683 -0.0316 -0.0651
                                         0.0535 -0.8605  0.0003 -0.0039  0.3245
                                         0.0010 -0.0014  0.0910 -0.0447
  78. (0.00255) RY ( 2) C  5            s(  9.10%)p 9.61( 87.48%)d 0.37(  3.41%)
                                         0.0000  0.0392  0.2992 -0.0029 -0.9011
                                        -0.0343  0.2481 -0.0002  0.0025  0.0988
                                         0.0010 -0.0023  0.1551 -0.0174
  79. (0.00164) RY ( 3) C  5            s(  0.00%)p 1.00( 37.85%)d 1.64( 62.15%)
                                         0.0000  0.0001  0.0004  0.0001 -0.0001
                                        -0.0003 -0.0024  0.0364  0.6141  0.0053
                                        -0.4822  0.6236  0.0019  0.0077
  80. (0.00069) RY ( 4) C  5            s(  0.00%)p 1.00( 52.81%)d 0.89( 47.19%)
                                         0.0000  0.0000  0.0029  0.0001  0.0033
                                         0.0001 -0.0024 -0.0038  0.7267 -0.0029
                                         0.0381 -0.6858 -0.0038 -0.0060
  81. (0.00065) RY ( 5) C  5            s( 61.96%)p 0.38( 23.38%)d 0.24( 14.66%)
                                         0.0000 -0.0176  0.7869  0.0209  0.3247
                                         0.0303  0.3564  0.0001 -0.0015  0.1922
                                         0.0012  0.0037 -0.3213 -0.0800
  82. (0.00036) RY ( 6) C  5            s( 10.72%)p 0.33(  3.50%)d 8.00( 85.77%)
                                         0.0000 -0.0059  0.3274  0.0090 -0.0278
                                         0.0134 -0.1844  0.0001 -0.0010 -0.9092
                                        -0.0054  0.0054  0.0679 -0.1623
  83. (0.00005) RY ( 7) C  5            s(  0.00%)p 1.00(  9.50%)d 9.53( 90.50%)
  84. (0.00005) RY ( 8) C  5            s(  1.88%)p 5.61( 10.53%)d46.68( 87.59%)
  85. (0.00001) RY ( 9) C  5            s(  2.90%)p 0.10(  0.30%)d33.39( 96.80%)
  86. (0.00307) RY ( 1) N  6            s(  6.02%)p11.57( 69.68%)d 4.03( 24.30%)
                                         0.0000  0.0006  0.2454 -0.0137 -0.8246
                                        -0.0373  0.1233 -0.0001  0.0034  0.4825
                                         0.0020 -0.0012 -0.0946 -0.0353
  87. (0.00223) RY ( 2) N  6            s(  1.55%)p59.67( 92.23%)d 4.03(  6.22%)
                                         0.0000 -0.0192  0.1228  0.0793  0.2720
                                         0.0279  0.9172 -0.0002  0.0030  0.1917
                                         0.0003 -0.0002  0.1314 -0.0907
  88. (0.00106) RY ( 3) N  6            s(  0.00%)p 1.00( 82.22%)d 0.22( 17.78%)
                                         0.0000  0.0000  0.0006  0.0001  0.0035
                                        -0.0001 -0.0040  0.0187  0.9065 -0.0013
                                        -0.0140 -0.4215 -0.0019 -0.0033
  89. (0.00091) RY ( 4) N  6            s(  0.00%)p 1.00(  7.12%)d13.05( 92.88%)
                                         0.0000  0.0000  0.0006 -0.0001  0.0008
                                         0.0000 -0.0018 -0.0031  0.2668 -0.0014
                                         0.7933  0.5473  0.0050 -0.0005
  90. (0.00031) RY ( 5) N  6            s( 28.31%)p 0.09(  2.60%)d 2.44( 69.09%)
                                         0.0000 -0.0050  0.5320  0.0498 -0.0960
                                         0.0017 -0.1196 -0.0002 -0.0005 -0.2657
                                        -0.0052 -0.0008  0.7660 -0.1831
  91. (0.00010) RY ( 6) N  6            s( 41.66%)p 0.38( 15.69%)d 1.02( 42.65%)
                                         0.0000 -0.0192  0.6452  0.0090  0.3415
                                        -0.0197 -0.1995 -0.0001 -0.0027  0.1825
                                        -0.0005  0.0046 -0.4723 -0.4124
  92. (0.00002) RY ( 7) N  6            s(  0.00%)p 1.00( 19.39%)d 4.16( 80.61%)
  93. (0.00001) RY ( 8) N  6            s( 22.37%)p 0.05(  1.06%)d 3.42( 76.56%)
  94. (0.00000) RY ( 9) N  6            s(  0.00%)p 1.00( 10.87%)d 8.20( 89.13%)
  95. (0.00289) RY ( 1) O  7            s( 14.22%)p 4.34( 61.71%)d 1.69( 24.07%)
                                         0.0000 -0.0072  0.3770  0.0059 -0.5846
                                        -0.0122 -0.5246 -0.0001 -0.0005 -0.3158
                                        -0.0029 -0.0002  0.3721 -0.0501
  96. (0.00107) RY ( 2) O  7            s(  0.00%)p 1.00( 71.95%)d 0.39( 28.05%)
                                         0.0000  0.0000  0.0006  0.0001 -0.0033
                                         0.0000  0.0049  0.0077 -0.8482 -0.0030
                                         0.3510 -0.3965 -0.0007 -0.0053
  97. (0.00060) RY ( 3) O  7            s(  0.00%)p 1.00( 13.18%)d 6.59( 86.82%)
                                         0.0000  0.0000  0.0013  0.0001  0.0005
                                         0.0001  0.0004 -0.0072  0.3630 -0.0045
                                         0.9305  0.0473  0.0034 -0.0054
  98. (0.00052) RY ( 4) O  7            s(  4.89%)p16.92( 82.80%)d 2.51( 12.31%)
                                         0.0000  0.0114  0.2209  0.0407 -0.4047
                                         0.0107  0.8139 -0.0001  0.0051 -0.3486
                                        -0.0040  0.0014 -0.0031  0.0392
  99. (0.00034) RY ( 5) O  7            s( 47.75%)p 0.03(  1.21%)d 1.07( 51.05%)
                                         0.0000  0.0007  0.6910 -0.0237 -0.0349
                                        -0.0071  0.1011  0.0001  0.0007  0.6934
                                         0.0013 -0.0007 -0.0459 -0.1661
 100. (0.00018) RY ( 6) O  7            s( 24.64%)p 1.80( 44.29%)d 1.26( 31.07%)
                                         0.0000 -0.0124  0.4962 -0.0061  0.6654
                                         0.0014 -0.0101  0.0000 -0.0024 -0.5079
                                        -0.0042  0.0032  0.0678 -0.2194
 101. (0.00005) RY ( 7) O  7            s(  0.93%)p 9.18(  8.50%)d97.83( 90.58%)
 102. (0.00002) RY ( 8) O  7            s(  7.61%)p 0.23(  1.72%)d11.91( 90.67%)
 103. (0.00000) RY ( 9) O  7            s(  0.00%)p 1.00( 14.95%)d 5.69( 85.05%)
 104. (0.00243) RY ( 1) H  8            s( 98.63%)p 0.01(  1.37%)
                                         0.0044  0.9931 -0.0036  0.1168  0.0007
 105. (0.00018) RY ( 2) H  8            s(  0.00%)p 1.00(100.00%)
                                         0.0000  0.0008 -0.0123 -0.0012 -0.9999
 106. (0.00017) RY ( 3) H  8            s(  0.34%)p99.99( 99.66%)
                                         0.0029  0.0578 -0.8531 -0.5185  0.0111
 107. (0.00004) RY ( 4) H  8            s(  1.12%)p88.03( 98.88%)
 108. (0.00229) RY ( 1) H  9            s( 98.08%)p 0.02(  1.92%)
                                         0.0064  0.9903 -0.1220 -0.0432  0.0495
 109. (0.00016) RY ( 2) H  9            s(  0.17%)p99.99( 99.83%)
                                         0.0051  0.0414  0.5962 -0.7996 -0.0592
 110. (0.00013) RY ( 3) H  9            s(  0.20%)p99.99( 99.80%)
                                         0.0081  0.0440  0.5426  0.3505  0.7620
 111. (0.00003) RY ( 4) H  9            s(  1.64%)p59.91( 98.36%)
 112. (0.00229) RY ( 1) H 10            s( 98.08%)p 0.02(  1.92%)
                                         0.0064  0.9903 -0.1222 -0.0429 -0.0490
 113. (0.00016) RY ( 2) H 10            s(  0.17%)p99.99( 99.83%)
                                         0.0051  0.0413  0.5957 -0.8006  0.0503
 114. (0.00013) RY ( 3) H 10            s(  0.20%)p99.99( 99.80%)
                                         0.0081  0.0441  0.5387  0.3553 -0.7626
 115. (0.00003) RY ( 4) H 10            s(  1.64%)p59.95( 98.36%)
 116. (0.00170) RY ( 1) H 11            s( 84.29%)p 0.19( 15.71%)
                                         0.0195  0.9179 -0.1513  0.3664 -0.0024
 117. (0.00145) RY ( 2) H 11            s(  0.00%)p 1.00(100.00%)
                                         0.0001  0.0040  0.0035 -0.0023  1.0000
[...]
  1 C                42.2      50.2      63.8       1.4       3.6       0.2
  2 C                49.1      50.8       3.8      61.7      49.6       0.3
  3 O                 2.1      -0.3      -0.3      35.2       1.0      29.0
  4 C                 2.7      -0.3      -1.2       1.8      45.3      -0.4
  5 N                 0.4       0.0       0.9      -0.5       1.4      -0.0
  6 O                 1.5      -0.3      32.4      -0.3       0.1      -0.0
  7 H                 0.1       0.0      -0.3       0.0       0.2       0.2
  8 H                -0.4      -0.0       0.0       0.0       0.0      -0.0
  9 H                -0.4      -0.0       0.0       0.0       0.0      -0.0
 10 H                 0.1      -0.0      -0.1       0.9       0.0      70.7
 11 H                -0.3       0.0       0.0      -0.0      -0.0       0.0

                     36        37        38        39        40        41   
                   0.00000   0.00000   0.00000   0.00000   0.00000   0.00000
                   0.01022   0.33750   0.01792   0.03155   0.00332   0.00195
                  --------  --------  --------  --------  --------  --------
  0 C                -0.0      -0.0       0.1      -0.3     143.6     125.7
  1 C                -1.1      -0.0      -0.0       1.7     -17.1      -5.4
  2 C                 5.1      -0.7       0.9      -0.5       1.2       0.0
  3 O                -0.5      -0.0       0.0      -0.0      -0.0      -0.0
  4 C                51.3      56.9      44.8       3.3      -0.1      -0.0
  5 N                44.9      44.0       0.1      57.8      -0.0      -0.0
  6 O                 0.1      -0.3      -0.3      38.6       0.0      -0.2
  7 H                -0.0      -0.0      -0.0      -0.0     -16.5      -1.6
  8 H                 0.0       0.0      -0.0      -0.0      -5.6      -9.3
  9 H                 0.0       0.0      -0.0      -0.0      -5.7      -9.2
 10 H                -0.0      -0.0       0.0      -0.0       0.1      -0.0
 11 H                 0.3       0.1      54.4      -0.4      -0.0      -0.0

                     42        43        44        45        46        47   
                   0.00000   0.00000   0.00000   0.00000   0.00000   0.00000
                   0.00060   0.00011   0.00002   0.00002   0.00002   0.00001
                  --------  --------  --------  --------  --------  --------
  0 C               240.1     187.4     118.1     119.4     113.3     110.1
  1 C              -122.1     -25.0      -6.7      -4.1      -1.7      -0.1
  2 C               -10.4      -0.3      -0.4       0.1       0.0      -0.0
  3 O                -0.5      -0.2      -0.1      -0.0      -0.0      -0.0
  4 C                -0.8      -0.1      -0.1       0.0      -0.0      -0.0
  5 N                -0.6      -0.2      -0.1      -0.0      -0.0      -0.0
  6 O                -1.9      -0.4       0.1      -0.1      -0.0      -0.0
  7 H                -1.4     -24.6      -4.5       0.5      -5.6      -2.0
  8 H                -0.9     -18.3      -3.8      -7.1      -3.1      -4.0
  9 H                -0.9     -18.3      -2.5      -8.5      -2.9      -4.0
 10 H                -0.4       0.0       0.0      -0.0      -0.1      -0.0
 11 H                -0.3      -0.1      -0.0       0.0      -0.0       0.0

                     48        49        50        51        52        53   
                   0.00000   0.00000   0.00000   0.00000   0.00000   0.00000
                   0.00000   0.00895   0.00349   0.00232   0.00169   0.00132
                  --------  --------  --------  --------  --------  --------
  0 C               112.2      -0.6     -35.3      -5.7      -0.1     -49.6
  1 C                -1.5     181.2     287.5     119.3     102.9     184.1
  2 C                 0.0     -52.4    -123.3      -8.4      -1.7     -31.3
  3 O                -0.0      -1.8      -1.6      -0.3      -0.1      -0.4
  4 C                -0.0       0.7      -9.4       0.1       0.0      -2.4
  5 N                -0.0      -7.8      -1.9      -0.1      -0.1       0.4
  6 O                -0.1     -18.3     -16.9      -4.5      -0.9      -1.5
  7 H                -3.8      -0.2      -0.0       0.0      -0.0       1.3
  8 H                -3.4      -0.3       0.8      -0.2       0.0      -0.2
  9 H                -3.3      -0.3       0.8      -0.2       0.0      -0.2
 10 H                -0.0       0.1      -0.5      -0.0      -0.0      -0.0
 11 H                -0.0      -0.2      -0.2       0.0      -0.0      -0.1

                     54        55        56        57        58        59   
                   0.00000   0.00000   0.00000   0.00000   0.00000   0.00000
                   0.00075   0.00054   0.00046   0.00002   0.00605   0.00277
                  --------  --------  --------  --------  --------  --------
  0 C               -77.1      -4.4      -8.3      -2.4      -2.2      -0.0
  1 C               212.1     105.7     118.7     107.7     -29.6      -1.4
  2 C               -32.2      -1.6      -9.4      -3.2     209.3     105.6
  3 O                -0.4       0.0      -0.7      -0.1     -34.3      -3.2
  4 C                -1.6      -0.0       1.1      -0.2     -39.8      -0.9
  5 N                -0.3      -0.0       0.2      -0.2      -1.6       0.0
  6 O                -1.2      -0.1      -1.2      -1.3      -0.5       0.0
  7 H                 1.8      -0.2       0.1       0.0      -0.3      -0.0
  8 H                -0.6       0.2      -0.1      -0.1       0.1       0.0
  9 H                -0.6       0.2      -0.1      -0.1       0.1      -0.0
 10 H                -0.0       0.0       0.0      -0.0      -2.4      -0.1
 11 H                 0.0      -0.0      -0.2      -0.0       1.0      -0.0

                     60        61        62        63        64        65   
                   0.00000   0.00000   0.00000   0.00000   0.00000   0.00000
                   0.00252   0.00174   0.00128   0.00056   0.00042   0.00028
                  --------  --------  --------  --------  --------  --------
  0 C                -1.0      -4.0      -0.0      -0.0      -1.2       0.1
  1 C              -107.2     -92.2      -3.7      -1.4     -20.1      -9.0
  2 C               235.2     291.0     115.5     103.1     149.7     118.5
  3 O               -12.4      -6.5       0.5      -0.1      -0.0      -2.7
  4 C                -3.9     -91.1     -12.2      -1.5     -28.9      -6.7
  5 N                -2.8       4.9      -0.2      -0.0       1.5       0.0
  6 O                -3.4       0.5       0.0      -0.0       0.2      -0.1
  7 H                -1.9       0.0      -0.0      -0.0      -0.1      -0.0
  8 H                 0.2      -0.0      -0.0      -0.0       0.0      -0.0
  9 H                 0.2      -0.0      -0.0      -0.0       0.0      -0.0
 10 H                -3.9      -0.8       0.4      -0.0      -0.3      -0.0
 11 H                 0.7      -1.8      -0.2      -0.0      -0.7      -0.0

                     66        67        68        69        70        71   
                   0.00000   0.00000   0.00000   0.00000   0.00000   0.00000
                   0.00001   0.00155   0.00128   0.00030   0.00007   0.00002
                  --------  --------  --------  --------  --------  --------
  0 C                -0.0      -0.0      -0.2      -0.6       0.0      -0.0
  1 C                -2.8      -0.2      -0.6      -3.3      -1.4       0.3
  2 C               105.7      -3.2     -18.3     -24.0      -4.6      -2.8
  3 O                -0.6     104.6     122.0     134.3     113.2     103.7
  4 C                -2.1      -0.1       0.8      -3.1       1.1      -0.2
  5 N                 0.0      -0.0      -0.0      -0.3      -0.1       0.0
  6 O                -0.0      -0.0      -0.0      -0.5      -0.1      -0.0
  7 H                -0.0      -0.0       0.0      -0.1      -0.3      -0.0
 10 H                -0.1      -0.9      -3.6      -2.3      -7.8      -0.9
 11 H                -0.1      -0.0      -0.1      -0.1       0.0      -0.0

                     72        73        74        75        76        77   
                   0.00000   0.00000   0.00000   0.00000   0.00000   0.00000
                   0.00001   0.00000   0.00000   0.00000   0.00852   0.00255
                  --------  --------  --------  --------  --------  --------
  0 C                -0.0      -0.0      -0.0       0.0      -0.2      -0.6
  1 C                -0.1      -0.0      -0.0      -0.0      -1.1     -10.3
  2 C                -2.5      -0.6      -1.6       0.0     -23.6     -72.5
  3 O               105.4     102.1     102.6     106.3      -0.2      -0.7
  4 C                -0.4      -0.0      -0.0       0.0     180.7     212.7
  5 N                -0.0      -0.0      -0.0      -0.0     -51.6     -14.1
  6 O                -0.0      -0.0      -0.0      -0.0      -0.7      -1.3
  7 H                -0.0      -0.0      -0.0      -0.0      -0.0      -0.1
 10 H                -2.4      -1.4      -0.9      -6.3      -0.1      -0.3
 11 H                -0.0      -0.0      -0.0       0.0      -3.3     -12.8

                     78        79        80        81        82        83   
                   0.00000   0.00000   0.00000   0.00000   0.00000   0.00000
                   0.00164   0.00069   0.00065   0.00036   0.00005   0.00005
                  --------  --------  --------  --------  --------  --------
  0 C                -0.0       0.0       0.3      -0.2      -0.0      -0.1
  1 C                -0.1       0.2      -2.2       1.6      -0.0      -0.1
  2 C                -1.9      -4.5     -60.6     -13.5      -2.0      -5.2
  3 O                 0.0      -0.1      -0.2      -0.6      -0.1      -0.1
  4 C               105.8     107.3     200.0     128.1     105.3     120.3
  5 N                -3.5      -1.8      -5.0     -11.9      -1.3      -2.6
  6 O                 0.0      -0.1      -0.2       0.5      -0.0      -0.1
 10 H                -0.0       0.0      -0.2      -0.1      -0.0      -0.0
 11 H                -0.4      -1.0     -31.8      -3.9      -1.8     -12.0

                     84        85        86        87        88        89   
                   0.00000   0.00000   0.00000   0.00000   0.00000   0.00000
                   0.00001   0.00307   0.00223   0.00106   0.00091   0.00031
                  --------  --------  --------  --------  --------  --------
  0 C                -0.1       0.1      -0.0      -0.0      -0.0      -0.1
  1 C                -0.2      -0.2      -2.0      -0.1      -0.1      -2.8
  2 C                -2.1      -2.9      -2.3       0.1      -0.0       2.6
  3 O                -0.1      -0.1      -0.0      -0.0      -0.0      -0.2
  4 C               109.3     -13.6     -10.1      -3.6      -1.5     -20.9
  5 N                -3.8     122.5     125.8     105.8     101.8     122.6
  6 O                 0.0      -5.7     -12.1      -2.2      -0.1      -0.4
 11 H                -2.9      -0.0       0.8      -0.0      -0.0      -0.7

                     90        91        92        93        94        95   
                   0.00000   0.00000   0.00000   0.00000   0.00000   0.00000
                   0.00010   0.00002   0.00001   0.00000   0.00289   0.00107
                  --------  --------  --------  --------  --------  --------
  0 C                -0.5      -0.2      -0.1      -0.0      -0.3      -0.1
  1 C                -6.9      -1.0      -0.6      -0.0     -10.1      -2.1
  2 C                10.4       0.6      -0.3      -0.0      -2.3      -0.0
  3 O                 0.1      -0.0      -0.1      -0.0      -0.3      -0.0
  4 C               -38.2      -4.3      -6.6      -2.3      -0.6       0.0
  5 N               149.1     106.1     117.5     103.1      -0.7      -2.2
  6 O               -13.0      -1.2      -9.4      -0.7     114.4     104.5
 11 H                -0.9       0.0      -0.4      -0.0      -0.0      -0.0

                     96        97        98        99       100       101   
                   0.00000   0.00000   0.00000   0.00000   0.00000   0.00000
                   0.00060   0.00052   0.00034   0.00018   0.00005   0.00002
                  --------  --------  --------  --------  --------  --------
  0 C                -0.1      -1.8      -1.2       1.2       0.6       0.0
  1 C                -1.4      -6.0     -11.1     -11.5      -3.7      -0.6
  2 C                -0.0       0.1       0.3      -0.3      -0.3       0.2
  3 O                -0.0       0.0      -0.4      -0.0      -0.0       0.0
  4 C                -0.0      -0.7       0.1       0.3      -0.1      -0.3
  5 N                -0.0      -5.0      -3.7     -25.8      -0.2      -4.3
  6 O               101.6     113.5     116.4     136.2     103.8     105.1
  7 H                -0.0       0.0      -0.1      -0.1      -0.0      -0.0
  8 H                -0.0      -0.0      -0.1      -0.1      -0.0      -0.0
  9 H                -0.0      -0.0      -0.1      -0.1      -0.0      -0.0

                    102       103       104       105       106       107   
                   0.00000   0.00000   0.00000   0.00000   0.00000   0.00000
                   0.00000   0.00243   0.00018   0.00017   0.00004   0.00229
                  --------  --------  --------  --------  --------  --------
  0 C                -0.1     -40.5      -2.9      -2.7      -8.1     -36.3
  1 C                -1.9       3.2      -0.2      -0.4      -0.2      -0.4
  2 C                -0.0      -1.9      -0.0      -0.2      -0.0       0.5
  3 O                -0.0      -0.4      -0.0      -0.0      -0.1      -0.0
  4 C                -0.0      -0.2      -0.0      -0.0      -0.0      -0.0
  5 N                -0.7      -0.0      -0.0      -0.0      -0.0       0.0
  6 O               102.8       0.1      -0.0      -0.2      -0.0      -0.1
  7 H                -0.0     144.1     103.7     104.1     108.8      -0.4
  8 H                -0.0      -0.5      -0.3      -0.3      -0.1     136.9
  9 H                -0.0      -0.5      -0.3      -0.3      -0.1      -0.1
 10 H                -0.0      -3.5      -0.0       0.0      -0.2       0.0

                    108       109       110       111       112       113   
                   0.00000   0.00000   0.00000   0.00000   0.00000   0.00000
                   0.00016   0.00013   0.00003   0.00229   0.00016   0.00013
                  --------  --------  --------  --------  --------  --------
  0 C                -3.3      -3.2      -7.9     -36.3      -3.3      -3.2
  1 C                -0.0      -0.2      -0.1      -0.4      -0.0      -0.2
  2 C                 0.0      -0.2      -0.0       0.5       0.0      -0.2
  6 O                -0.0      -0.1      -0.1      -0.1      -0.0      -0.1
  7 H                -0.5      -0.2      -0.1      -0.4      -0.5      -0.2
  8 H               104.3     104.5     108.3      -0.1      -0.3      -0.6
  9 H                -0.3      -0.6      -0.1     136.9     104.3     104.5

                    114       115       116       117       118       119   
                   0.00000   0.00000   0.00000   0.00000   0.00000   0.00000
                   0.00003   0.00170   0.00145   0.00091   0.00002   0.00109
                  --------  --------  --------  --------  --------  --------
  0 C                -7.9      -0.2      -0.0      -0.1      -0.1      -0.3
  1 C                -0.1      -0.2      -0.0       0.3       0.2      -0.4
  2 C                -0.0      -5.3      -0.1      -2.1      -0.2      -2.2
  3 O                -0.0      -5.9      -3.2      -1.4      -3.3      -0.1
  4 C                -0.0      -0.2      -0.0      -0.7      -0.0     -48.1
  5 N                -0.0      -0.0      -0.0      -0.0      -0.0      -0.9
  7 H                -0.1      -2.9      -0.0      -0.4      -0.3       0.0
  9 H               108.3      -0.0      -0.0      -0.0      -0.0       0.0
 10 H                -0.0     114.7     103.3     104.5     103.7      -0.0
 11 H                -0.0      -0.0      -0.0      -0.0      -0.0     151.9

                    120       121       122   
                   0.00000   0.00000   0.00000
                   0.00019   0.00006   0.00004
                  --------  --------  --------
  1 C                -0.0      -0.1      -0.1
  2 C                -0.1       0.1      -0.4
  4 C                -3.1      -8.0      -4.4
  5 N                -0.1      -0.2      -0.9
 11 H               103.2     108.4     106.0

Storing NBOs: 4921.nbo
                                    *** NBOs were stored ***

                                *** returned from GENNBO program ***

-------
TIMINGS
-------

Total SCF time: 0 days 0 hours 0 min 4 sec 

Total time                  ....       4.720 sec
Sum of individual times     ....       5.113 sec  (108.3%)

Fock matrix formation       ....       3.136 sec  ( 66.4%)
  Coulomb formation         ....       1.765 sec  ( 56.3% of F)
  Split-RI-J                ....       1.759 sec  ( 56.1% of F)
  XC integration            ....       1.367 sec  ( 43.6% of F)
    Basis function eval.    ....       0.467 sec  ( 34.2% of XC)
    Density eval.           ....       0.241 sec  ( 17.6% of XC)
    XC-Functional eval.     ....       0.092 sec  (  6.8% of XC)
    XC-Potential eval.      ....       0.535 sec  ( 39.1% of XC)
Diagonalization             ....       0.021 sec  (  0.4%)
Density matrix formation    ....       0.002 sec  (  0.0%)
Population analysis         ....       1.099 sec  ( 23.3%)
Initial guess               ....       0.298 sec  (  6.3%)
Orbital Transformation      ....       0.000 sec  (  0.0%)
Orbital Orthonormalization  ....       0.000 sec  (  0.0%)
DIIS solution               ....       0.005 sec  (  0.1%)
SOSCF solution              ....       0.011 sec  (  0.2%)
Grid generation             ....       0.541 sec  ( 11.5%)
           ************************************************************
           *              Shut down parallel processing               *
           ************************************************************

-------------------------   --------------------
FINAL SINGLE POINT ENERGY      -359.898457382382
-------------------------   --------------------


                            ***************************************
                            *     ORCA property calculations      *
                            ***************************************

                                    ---------------------
                                    Active property flags
                                    ---------------------
   (+) Dipole Moment


------------------------------------------------------------------------------
                       ORCA ELECTRIC PROPERTIES CALCULATION
------------------------------------------------------------------------------

Dipole Moment Calculation                       ... on
Quadrupole Moment Calculation                   ... off
Polarizability Calculation                      ... off
GBWName                                         ... 4921.gbw
Electron density file                           ... 4921.scfp.tmp

-------------
DIPOLE MOMENT
-------------
                                X             Y             Z
Electronic contribution:      4.52802      -0.50757      -0.01836
Nuclear contribution   :     -5.79591       1.32036       0.02671
                        -----------------------------------------
Total Dipole Moment    :     -1.26790       0.81278       0.00835
                        -----------------------------------------
Magnitude (a.u.)       :      1.50607
Magnitude (Debye)      :      3.82813


Timings for individual modules:

Sum of individual times         ...        5.808 sec (=   0.097 min)
GTO integral calculation        ...        0.461 sec (=   0.008 min)   7.9 %
SCF iterations                  ...        5.347 sec (=   0.089 min)  92.1 %
                             ****ORCA TERMINATED NORMALLY****
TOTAL RUN TIME: 0 days 0 hours 0 minutes 6 seconds 202 msec
