
                                 *****************
                                 * O   R   C   A *
                                 *****************

           --- An Ab Initio, DFT and Semiempirical electronic structure package ---

                  #######################################################
                  #                        -***-                        #
                  #  Department of molecular theory and spectroscopy    #
                  #              Directorship: Frank Neese              #
                  # Max Planck Institute for Chemical Energy Conversion #
                  #                  D-45470 Muelheim/Ruhr              #
                  #                       Germany                       #
                  #                                                     #
                  #                  All rights reserved                #
                  #                        -***-                        #
                  #######################################################


                         Program Version 3.0.3 - RELEASE   -


 With contributions from (in alphabetic order):
   Ute Becker             : Parallelization
   Dmytro Bykov           : SCF Hessian
   Dmitry Ganyushin       : Spin-Orbit,Spin-Spin,Magnetic field MRCI
   Andreas Hansen         : Spin unrestricted coupled pair/coupled cluster methods
   Dimitrios Liakos       : Extrapolation schemes; parallel MDCI
   Robert Izsak           : Overlap fitted RIJCOSX, COSX-SCS-MP3
   Christian Kollmar      : KDIIS, OOCD, Brueckner-CCSD(T), CCSD density
   Simone Kossmann        : Meta GGA functionals, TD-DFT gradient, OOMP2, MP2 Hessian
   Taras Petrenko         : DFT Hessian,TD-DFT gradient, ASA and ECA modules, normal mode analysis, Resonance Raman, ABS, FL, XAS/XES, NRVS
   Christoph Reimann      : Effective Core Potentials
   Michael Roemelt        : Restricted open shell CIS
   Christoph Riplinger    : Improved optimizer, TS searches, QM/MM, DLPNO-CCSD
   Barbara Sandhoefer     : DKH picture change effects
   Igor Schapiro          : Molecular dynamics
   Kantharuban Sivalingam : CASSCF convergence, NEVPT2
   Boris Wezisla          : Elementary symmetry handling
   Frank Wennmohs         : Technical directorship


 We gratefully acknowledge several colleagues who have allowed us to
 interface, adapt or use parts of their codes:
   Stefan Grimme, W. Hujo, H. Kruse, T. Risthaus : VdW corrections, initial TS optimization,
                                                   DFT functionals, gCP
   Ed Valeev                                     : LibInt (2-el integral package), F12 methods
   Garnet Chan, S. Sharma, R. Olivares           : DMRG
   Ulf Ekstrom                                   : XCFun DFT Library
   Mihaly Kallay                                 : mrcc  (arbitrary order and MRCC methods)
   Andreas Klamt, Michael Diedenhofen            : otool_cosmo (COSMO solvation model)
   Frank Weinhold                                : gennbo (NPA and NBO analysis)
   Christopher J. Cramer and Donald G. Truhlar   : smd solvation model


 Your calculation uses the libint2 library for the computation of 2-el integrals
 For citations please refer to: http://libint.valeyev.net

 This ORCA versions uses:
   CBLAS   interface :  Fast vector & matrix operations
   LAPACKE interface :  Fast linear algebra routines
   SCALAPACK package :  Parallel linear algebra routines


Your calculation utilizes the basis: Ahlrichs-VDZ
Cite in your paper:
H - Kr: A. Schaefer, H. Horn and R. Ahlrichs, J. Chem. Phys. 97, 2571 (1992).

Your calculation utilizes the basis: Ahlrichs SVPalls1+f
Cite in your paper:
Rb - Xe: A. Schaefer, C. Huber and R. Ahlrichs, J. Chem. Phys. 100, 5829 (1994).

================================================================================
                                        WARNINGS
                       Please study these warnings very carefully!
================================================================================
Now building the actual basis set


INFO   : the flag for use of LIBINT has been found!

================================================================================
                                       INPUT FILE
================================================================================
NAME = 5042.inp
|  1> ! RI PBE def2-SVP def2-SVP/J NBO PAL2
|  2> % maxcore 2000
|  3> % output
|  4>     # printlevel mini
|  5>     print[ P_Basis ] 0
|  6>     print[ P_SCFInfo ] 1
|  7>     print[ P_SCFIterInfo ] 1
|  8>     print[ P_OrbEn ] 0
|  9>     print[ P_Cartesian ] 0
| 10> end
| 11> *xyz 0 1
| 12>  C        0.9969850000    -0.0982910000    -0.4335750000 
| 13>  C        2.4581600000     0.0447520000    -0.1738630000 
| 14>  C        3.0735520000     0.4644340000     0.9320920000 
| 15>  C        2.3657310000     0.8969240000     2.1848250000 
| 16>  N        2.7332970000     0.0276080000     3.3094670000 
| 17>  C        4.5757570000     0.5491580000     0.9880960000 
| 18>  O        5.1541050000    -0.3270730000     1.9303860000 
| 19>  H        0.7665870000    -1.1173010000    -0.7599660000 
| 20>  H        0.6817010000     0.5646910000    -1.2460280000 
| 21>  H        0.3784380000     0.1233460000     0.4360600000 
| 22>  H        3.0976000000    -0.2301010000    -1.0116590000 
| 23>  H        1.2834380000     0.9602140000     2.0277790000 
| 24>  H        2.7073320000     1.9071780000     2.4392940000 
| 25>  H        2.3262940000    -0.8922160000     3.1870210000 
| 26>  H        2.3866990000     0.4014280000     4.1839160000 
| 27>  H        4.8619500000     1.5918950000     1.2102360000 
| 28>  H        4.9966720000     0.2996760000     0.0106210000 
| 29>  H        4.5806840000    -0.2876320000     2.7149980000 
| 30> *
| 31> 
| 32>                          ****END OF INPUT****
================================================================================

                       ****************************
                       * Single Point Calculation *
                       ****************************

--------------------------------
INTERNAL COORDINATES (ANGSTROEM)
--------------------------------
 C      0   0   0   0.000000     0.000     0.000
 C      1   0   0   1.490954     0.000     0.000
 C      2   1   0   1.333408   128.827     0.000
 C      3   2   1   1.502464   124.384   359.801
 N      4   3   2   1.468208   110.506   118.319
 C      3   2   1   1.505634   120.599   180.572
 O      6   3   2   1.410737   113.511   244.109
 H      1   2   3   1.094530   110.338   234.941
 H      1   2   3   1.095002   110.691   117.471
 H      1   2   3   1.089949   113.433   356.166
 H      2   1   3   1.089188   114.655   180.311
 H      4   3   2   1.095458   111.256   351.890
 H      4   3   2   1.096384   108.178   234.964
 H      5   4   3   1.013272   110.143   289.495
 H      5   4   3   1.012192   110.938   170.490
 H      6   3   2   1.103881   108.621   121.100
 H      6   3   2   1.093100   109.760     4.189
 H      7   6   3   0.972617   105.780   318.846

---------------------------
INTERNAL COORDINATES (A.U.)
---------------------------
 C      0   0   0   0.000000     0.000     0.000
 C      1   0   0   2.817495     0.000     0.000
 C      2   1   0   2.519776   128.827     0.000
 C      3   2   1   2.839246   124.384   359.801
 N      4   3   2   2.774511   110.506   118.319
 C      3   2   1   2.845236   120.599   180.572
 O      6   3   2   2.665906   113.511   244.109
 H      1   2   3   2.068362   110.338   234.941
 H      1   2   3   2.069254   110.691   117.471
 H      1   2   3   2.059705   113.433   356.166
 H      2   1   3   2.058266   114.655   180.311
 H      4   3   2   2.070115   111.256   351.890
 H      4   3   2   2.071866   108.178   234.964
 H      5   4   3   1.914807   110.143   289.495
 H      5   4   3   1.912766   110.938   170.490
 H      6   3   2   2.086033   108.621   121.100
 H      6   3   2   2.065660   109.760     4.189
 H      7   6   3   1.837979   105.780   318.846



           ************************************************************
           *        Program running with 2 parallel MPI-processes     *
           *              working on a common directory               *
           ************************************************************
------------------------------------------------------------------------------
                           ORCA GTO INTEGRAL CALCULATION
                           -- RI-GTO INTEGRALS CHOSEN --
------------------------------------------------------------------------------

                         BASIS SET STATISTICS AND STARTUP INFO

Gaussian basis set:
 # of primitive gaussian shells          ...  139
 # of primitive gaussian functions       ...  245
 # of contracted shells                  ...   75
 # of contracted basis functions         ...  153
 Highest angular momentum                ...    2
 Maximum contraction depth               ...    5
Auxiliary gaussian basis set:
 # of primitive gaussian shells          ...  256
 # of primitive gaussian functions       ...  666
 # of contracted shells                  ...  160
 # of contracted aux-basis functions     ...  464
 Highest angular momentum                ...    4
 Maximum contraction depth               ...    7
Ratio of auxiliary to basis functions    ...  3.03
Integral package used                  ... LIBINT
 One Electron integrals                  ... done
 Ordering auxiliary basis shells         ... done
 Integral threshhold             Thresh  ...  1.000e-10
 Primitive cut-off               TCut    ...  1.000e-11
 Pre-screening matrix                    ... done
 Shell pair data                         ... 
 Ordering of the shell pairs             ... done (   0.000 sec) 2739 of 2850 pairs
 Determination of significant pairs      ... done (   0.000 sec)
 Creation of shell pair data             ... done (   0.000 sec)
 Storage of shell pair data              ... done (   0.000 sec)
 Shell pair data done in (   0.001 sec)
 Computing two index integrals           ... done
 Cholesky decomposition of the V-matrix  ... done


Timings:
 Total evaluation time                   ...   0.154 sec (  0.003 min)
 One electron matrix time                ...   0.020 sec (  0.000 min) = 12.9%
 Schwartz matrix evaluation time         ...   0.071 sec (  0.001 min) = 46.3%
 Two index repulsion integral time       ...   0.004 sec (  0.000 min) =  2.7%
 Cholesky decomposition of V             ...   0.004 sec (  0.000 min) =  2.3%
 Three index repulsion integral time     ...   0.000 sec (  0.000 min) =  0.0%

           ************************************************************
           *              Shut down parallel processing               *
           ************************************************************


           ************************************************************
           *        Program running with 2 parallel MPI-processes     *
           *              working on a common directory               *
           ************************************************************
-------------------------------------------------------------------------------
                                 ORCA SCF
-------------------------------------------------------------------------------

------------
SCF SETTINGS
------------
Hamiltonian:
 Density Functional     Method          .... DFT(GTOs)
 Exchange Functional    Exchange        .... PBE
   PBE kappa parameter  XKappa          ....  0.804000
 Correlation Functional Correlation     .... PBE
 LDA part of GGA corr.  LDAOpt          .... PW91-LDA
 Gradients option       PostSCFGGA      .... off
   NL short-range parameter             ....  6.400000
 RI-approximation to the Coulomb term is turned on
   Number of auxiliary basis functions  .... 464


General Settings:
 Integral files         IntName         .... 5042
 Hartree-Fock type      HFTyp           .... RHF
 Total Charge           Charge          ....    0
 Multiplicity           Mult            ....    1
 Number of Electrons    NEL             ....   56
 Basis Dimension        Dim             ....  153
 Nuclear Repulsion      ENuc            ....    315.7631186838 Eh

Convergence Acceleration:
 DIIS                   CNVDIIS         .... on
   Start iteration      DIISMaxIt       ....    12
   Startup error        DIISStart       ....  0.200000
   # of expansion vecs  DIISMaxEq       ....     5
   Bias factor          DIISBfac        ....   1.050
   Max. coefficient     DIISMaxC        ....  10.000
 Newton-Raphson         CNVNR           .... off
 SOSCF                  CNVSOSCF        .... on
   Start iteration      SOSCFMaxIt      ....   150
   Startup grad/error   SOSCFStart      ....  0.003300
 Level Shifting         CNVShift        .... on
   Level shift para.    LevelShift      ....    0.2500
   Turn off err/grad.   ShiftErr        ....    0.0010
 Zerner damping         CNVZerner       .... off
 Static damping         CNVDamp         .... on
   Fraction old density DampFac         ....    0.7000
   Max. Damping (<1)    DampMax         ....    0.9800
   Min. Damping (>=0)   DampMin         ....    0.0000
   Turn off err/grad.   DampErr         ....    0.1000
 Fernandez-Rico         CNVRico         .... off

SCF Procedure:
 Maximum # iterations   MaxIter         ....   125
 SCF integral mode      SCFMode         .... Direct
   Integral package                     .... LIBINT
 Reset frequeny         DirectResetFreq ....    20
 Integral Threshold     Thresh          ....  1.000e-10 Eh
 Primitive CutOff       TCut            ....  1.000e-11 Eh

Convergence Tolerance:
 Convergence Check Mode ConvCheckMode   .... Total+1el-Energy
 Energy Change          TolE            ....  1.000e-06 Eh
 1-El. energy change                    ....  1.000e-03 Eh
 Orbital Gradient       TolG            ....  5.000e-05
 Orbital Rotation angle TolX            ....  5.000e-05
 DIIS Error             TolErr          ....  1.000e-06


Diagonalization of the overlap matrix:
Smallest eigenvalue                        ... 1.309e-03
Time for diagonalization                   ...    0.013 sec
Threshold for overlap eigenvalues          ... 1.000e-08
Number of eigenvalues below threshold      ... 0
Time for construction of square roots      ...    0.003 sec
Total time needed                          ...    0.016 sec

-------------------
DFT GRID GENERATION
-------------------

General Integration Accuracy     IntAcc      ...  4.340
Radial Grid Type                 RadialGrid  ... Gauss-Chebyshev
Angular Grid (max. acc.)         AngularGrid ... Lebedev-110
Angular grid pruning method      GridPruning ... 3 (G Style)
Weight generation scheme         WeightScheme... Becke
Basis function cutoff            BFCut       ...    1.0000e-10
Integration weight cutoff        WCut        ...    1.0000e-14
Grids for H and He will be reduced by one unit

# of grid points (after initial pruning)     ...  20432 (   0.0 sec)
# of grid points (after weights+screening)   ...  18800 (   0.1 sec)
nearest neighbour list constructed           ...    0.0 sec
Grid point re-assignment to atoms done       ...    0.0 sec
Grid point division into batches done        ...    0.0 sec
Reduced shell lists constructed in    0.1 sec

Total number of grid points                  ...    18800
Total number of batches                      ...      303
Average number of points per batch           ...       62
Average number of grid points per atom       ...     1044
Average number of shells per batch           ...    55.86 (74.48%)
Average number of basis functions per batch  ...   110.88 (72.47%)
Average number of large shells per batch     ...    43.67 (78.18%)
Average number of large basis fcns per batch ...    84.82 (76.50%)
Maximum spatial batch extension              ...  19.56, 17.90, 17.67 au
Average spatial batch extension              ...   1.59,  1.49,  1.41 au

Time for grid setup =    0.156 sec

------------------------------
INITIAL GUESS: MODEL POTENTIAL
------------------------------
Loading Hartree-Fock densities                     ... done
Calculating cut-offs                               ... done
Setting up the integral package                    ... done
Initializing the effective Hamiltonian             ... done
Starting the Coulomb interaction                   ... done (   0.1 sec)
Reading the grid                                   ... done
Mapping shells                                     ... done
Starting the XC term evaluation                    ... done (   0.1 sec)
  promolecular density results
     # of electrons  =     55.985539993
     EX              =    -43.512522888
     EC              =     -1.838600693
     EX+EC           =    -45.351123581
Transforming the Hamiltonian                       ... done (   0.0 sec)
Diagonalizing the Hamiltonian                      ... done (   0.0 sec)
Back transforming the eigenvectors                 ... done (   0.0 sec)
Now organizing SCF variables                       ... done
                      ------------------
                      INITIAL GUESS DONE (   0.4 sec)
                      ------------------
--------------
SCF ITERATIONS
--------------
ITER       Energy         Delta-E        Max-DP      RMS-DP      [F,P]     Damp
               ***  Starting incremental Fock matrix formation  ***
  0   -326.2257463146   0.000000000000 0.08014821  0.00281361  0.2169929 0.7000
  1   -326.3307867551  -0.105040440583 0.05499579  0.00201135  0.0868659 0.7000
                               ***Turning on DIIS***
  2   -326.3671094484  -0.036322693242 0.07123171  0.00311767  0.0239886 0.0000
  3   -326.4228967940  -0.055787345652 0.04142011  0.00137343  0.0530893 0.0000
  4   -326.4383824011  -0.015485607111 0.01025380  0.00044673  0.0086665 0.0000
  5   -326.4391798913  -0.000797490176 0.00589517  0.00018402  0.0047202 0.0000
                      *** Initiating the SOSCF procedure ***
                           *** Shutting down DIIS ***
                      *** Re-Reading the Fockian *** 
                      *** Removing any level shift *** 
ITER      Energy       Delta-E        Grad      Rot      Max-DP    RMS-DP
  6   -326.43926152  -0.0000816305  0.000230  0.000230  0.002636  0.000096
               *** Restarting incremental Fock matrix formation ***
  7   -326.43926637  -0.0000048433  0.000184  0.000940  0.001592  0.000044
  8   -326.43926065   0.0000057107  0.000519  0.000859  0.001004  0.000030
  9   -326.43926812  -0.0000074638  0.000121  0.000526  0.000536  0.000012
 10   -326.43926758   0.0000005382  0.000261  0.000370  0.000369  0.000008
                  ***Gradient check signals convergence***
              ***Rediagonalizing the Fockian in SOSCF/NRSCF***

               *****************************************************
               *                     SUCCESS                       *
               *           SCF CONVERGED AFTER  11 CYCLES          *
               *****************************************************

Setting up the final grid:

General Integration Accuracy     IntAcc      ...  4.670
Radial Grid Type                 RadialGrid  ... Gauss-Chebyshev
Angular Grid (max. acc.)         AngularGrid ... Lebedev-302
Angular grid pruning method      GridPruning ... 3 (G Style)
Weight generation scheme         WeightScheme... Becke
Basis function cutoff            BFCut       ...    1.0000e-10
Integration weight cutoff        WCut        ...    1.0000e-14
Grids for H and He will be reduced by one unit

# of grid points (after initial pruning)     ...  80818 (   0.0 sec)
# of grid points (after weights+screening)   ...  73259 (   0.1 sec)
nearest neighbour list constructed           ...    0.0 sec
Grid point re-assignment to atoms done       ...    0.0 sec
Grid point division into batches done        ...    0.2 sec
Reduced shell lists constructed in    0.5 sec

Total number of grid points                  ...    73259
Total number of batches                      ...     1154
Average number of points per batch           ...       63
Average number of grid points per atom       ...     4070
Average number of shells per batch           ...    51.68 (68.90%)
Average number of basis functions per batch  ...   101.68 (66.46%)
Average number of large shells per batch     ...    40.06 (77.53%)
Average number of large basis fcns per batch ...    77.13 (75.86%)
Maximum spatial batch extension              ...  18.86, 17.32, 20.22 au
Average spatial batch extension              ...   1.03,  1.01,  0.99 au

Final grid set up in    0.6 sec
Final integration                            ... done (   0.5 sec)
Change in XC energy                          ...    -0.000070712
Integrated number of electrons               ...    56.000002339
Previous integrated no of electrons          ...    55.993558936

----------------
TOTAL SCF ENERGY
----------------

Total Energy       :         -326.43933896 Eh           -8882.86601 eV

Components:
Nuclear Repulsion  :          315.76311868 Eh            8592.35129 eV
Electronic Energy  :         -642.20245764 Eh          -17475.21730 eV

One Electron Energy:        -1068.17475220 Eh          -29066.51272 eV
Two Electron Energy:          425.97229456 Eh           11591.29542 eV

Virial components:
Potential Energy   :         -649.84310482 Eh          -17683.12987 eV
Kinetic Energy     :          323.40376586 Eh            8800.26387 eV
Virial Ratio       :            2.00938633


DFT components:
N(Alpha)           :       28.000001169314 electrons
N(Beta)            :       28.000001169314 electrons
N(Total)           :       56.000002338627 electrons
E(X)               :      -44.469735736372 Eh       
E(C)               :       -1.857415380295 Eh       
E(XC)              :      -46.327151116667 Eh       

---------------
SCF CONVERGENCE
---------------

  Last Energy change         ...   -6.6605e-07  Tolerance :   1.0000e-06
  Last MAX-Density change    ...    6.9295e-05  Tolerance :   1.0000e-05
  Last RMS-Density change    ...    2.4497e-06  Tolerance :   1.0000e-06
  Last Orbital Gradient      ...    8.5594e-06  Tolerance :   5.0000e-05
  Last Orbital Rotation      ...    2.0325e-05  Tolerance :   5.0000e-05

             **** THE GBW FILE WAS UPDATED (5042.gbw) ****
             **** DENSITY FILE WAS UPDATED (5042.scfp.tmp) ****
             **** ENERGY FILE WAS UPDATED (5042.en.tmp) ****

                    ********************************
                    * MULLIKEN POPULATION ANALYSIS *
                    ********************************

-----------------------
MULLIKEN ATOMIC CHARGES
-----------------------
   0 C :    0.046963
   1 C :   -0.116245
   2 C :   -0.224144
   3 C :    0.164296
   4 N :   -0.225386
   5 C :    0.288249
   6 O :   -0.305080
   7 H :    0.029306
   8 H :    0.035498
   9 H :    0.013731
  10 H :   -0.009265
  11 H :   -0.001065
  12 H :    0.004590
  13 H :    0.105304
  14 H :    0.100195
  15 H :   -0.021146
  16 H :   -0.015292
  17 H :    0.129491
Sum of atomic charges:    0.0000000

--------------------------------
MULLIKEN REDUCED ORBITAL CHARGES
--------------------------------
  0 C s       :     2.927246  s :     2.927246
      pz      :     1.008303  p :     2.999871
      px      :     0.980504
      py      :     1.011065
      dz2     :     0.003344  d :     0.025920
      dxz     :     0.006921
      dyz     :     0.004528
      dx2y2   :     0.006714
      dxy     :     0.004412
  1 C s       :     3.175862  s :     3.175862
      pz      :     0.991254  p :     2.906853
      px      :     0.914720
      py      :     1.000879
      dz2     :     0.006825  d :     0.033530
      dxz     :     0.012011
      dyz     :     0.004123
      dx2y2   :     0.004954
      dxy     :     0.005617
  2 C s       :     3.109208  s :     3.109208
      pz      :     1.026343  p :     3.075677
      px      :     1.039730
      py      :     1.009604
      dz2     :     0.009579  d :     0.039259
      dxz     :     0.010873
      dyz     :     0.006569
      dx2y2   :     0.006563
      dxy     :     0.005675
  3 C s       :     2.898258  s :     2.898258
      pz      :     0.918660  p :     2.889402
      px      :     0.982097
      py      :     0.988644
      dz2     :     0.011625  d :     0.048045
      dxz     :     0.009419
      dyz     :     0.011318
      dx2y2   :     0.010272
      dxy     :     0.005411
  4 N s       :     3.440057  s :     3.440057
      pz      :     1.061839  p :     3.767702
      px      :     1.638293
      py      :     1.067571
      dz2     :     0.003980  d :     0.017627
      dxz     :     0.004265
      dyz     :     0.003002
      dx2y2   :     0.001895
      dxy     :     0.004484
  5 C s       :     2.913869  s :     2.913869
      pz      :     0.914293  p :     2.735491
      px      :     0.917189
      py      :     0.904010
      dz2     :     0.014191  d :     0.062390
      dxz     :     0.011527
      dyz     :     0.010884
      dx2y2   :     0.016171
      dxy     :     0.009617
  6 O s       :     3.720882  s :     3.720882
      pz      :     1.270930  p :     4.571849
      px      :     1.635189
      py      :     1.665730
      dz2     :     0.001497  d :     0.012350
      dxz     :     0.004139
      dyz     :     0.001960
      dx2y2   :     0.002303
      dxy     :     0.002451
  7 H s       :     0.946585  s :     0.946585
      pz      :     0.006386  p :     0.024109
      px      :     0.005051
      py      :     0.012672
  8 H s       :     0.940249  s :     0.940249
      pz      :     0.009981  p :     0.024253
      px      :     0.005421
      py      :     0.008852
  9 H s       :     0.961893  s :     0.961893
      pz      :     0.011045  p :     0.024376
      px      :     0.007274
      py      :     0.006056
 10 H s       :     0.986255  s :     0.986255
      pz      :     0.010162  p :     0.023010
      px      :     0.007301
      py      :     0.005547
 11 H s       :     0.979129  s :     0.979129
      pz      :     0.004102  p :     0.021937
      px      :     0.013343
      py      :     0.004491
 12 H s       :     0.973616  s :     0.973616
      pz      :     0.004036  p :     0.021794
      px      :     0.005824
      py      :     0.011934
 13 H s       :     0.849134  s :     0.849134
      pz      :     0.009186  p :     0.045562
      px      :     0.014897
      py      :     0.021479
 14 H s       :     0.854111  s :     0.854111
      pz      :     0.019688  p :     0.045694
      px      :     0.014795
      py      :     0.011211
 15 H s       :     0.999674  s :     0.999674
      pz      :     0.004357  p :     0.021471
      px      :     0.005144
      py      :     0.011970
 16 H s       :     0.993952  s :     0.993952
      pz      :     0.011015  p :     0.021340
      px      :     0.005632
      py      :     0.004693
 17 H s       :     0.797652  s :     0.797652
      pz      :     0.029829  p :     0.072857
      px      :     0.026116
      py      :     0.016913


                     *******************************
                     * LOEWDIN POPULATION ANALYSIS *
                     *******************************

----------------------
LOEWDIN ATOMIC CHARGES
----------------------
   0 C :   -0.069800
   1 C :   -0.039211
   2 C :   -0.076910
   3 C :    0.013933
   4 N :   -0.072115
   5 C :    0.065715
   6 O :   -0.140594
   7 H :    0.038092
   8 H :    0.039513
   9 H :    0.025176
  10 H :    0.024877
  11 H :    0.006347
  12 H :    0.029166
  13 H :    0.059088
  14 H :    0.057305
  15 H :    0.001115
  16 H :    0.014946
  17 H :    0.023358

-------------------------------
LOEWDIN REDUCED ORBITAL CHARGES
-------------------------------
  0 C s       :     2.829468  s :     2.829468
      pz      :     1.064919  p :     3.169109
      px      :     1.038017
      py      :     1.066172
      dz2     :     0.009870  d :     0.071224
      dxz     :     0.017789
      dyz     :     0.012856
      dx2y2   :     0.020294
      dxy     :     0.010415
  1 C s       :     2.870228  s :     2.870228
      pz      :     1.063507  p :     3.078652
      px      :     1.029758
      py      :     0.985388
      dz2     :     0.020796  d :     0.090330
      dxz     :     0.033721
      dyz     :     0.010101
      dx2y2   :     0.013580
      dxy     :     0.012131
  2 C s       :     2.874649  s :     2.874649
      pz      :     1.058230  p :     3.099646
      px      :     1.053455
      py      :     0.987961
      dz2     :     0.027171  d :     0.102615
      dxz     :     0.031548
      dyz     :     0.014979
      dx2y2   :     0.016794
      dxy     :     0.012123
  3 C s       :     2.830848  s :     2.830848
      pz      :     0.967158  p :     3.038569
      px      :     1.058294
      py      :     1.013117
      dz2     :     0.026394  d :     0.116650
      dxz     :     0.024018
      dyz     :     0.027419
      dx2y2   :     0.026782
      dxy     :     0.012036
  4 N s       :     3.128282  s :     3.128282
      pz      :     1.132604  p :     3.902053
      px      :     1.621598
      py      :     1.147851
      dz2     :     0.011205  d :     0.041780
      dxz     :     0.007587
      dyz     :     0.010062
      dx2y2   :     0.004383
      dxy     :     0.008544
  5 C s       :     2.835591  s :     2.835591
      pz      :     0.969204  p :     2.951347
      px      :     0.998902
      py      :     0.983241
      dz2     :     0.033915  d :     0.147347
      dxz     :     0.025863
      dyz     :     0.023204
      dx2y2   :     0.043998
      dxy     :     0.020367
  6 O s       :     3.448527  s :     3.448527
      pz      :     1.334339  p :     4.668739
      px      :     1.656480
      py      :     1.677920
      dz2     :     0.003205  d :     0.023328
      dxz     :     0.009433
      dyz     :     0.004310
      dx2y2   :     0.003134
      dxy     :     0.003245
  7 H s       :     0.895304  s :     0.895304
      pz      :     0.015590  p :     0.066604
      px      :     0.014581
      py      :     0.036433
  8 H s       :     0.893817  s :     0.893817
      pz      :     0.027852  p :     0.066670
      px      :     0.015610
      py      :     0.023207
  9 H s       :     0.906496  s :     0.906496
      pz      :     0.031761  p :     0.068328
      px      :     0.021943
      py      :     0.014624
 10 H s       :     0.905726  s :     0.905726
      pz      :     0.029349  p :     0.069398
      px      :     0.023282
      py      :     0.016767
 11 H s       :     0.924481  s :     0.924481
      pz      :     0.014117  p :     0.069172
      px      :     0.042098
      py      :     0.012957
 12 H s       :     0.905122  s :     0.905122
      pz      :     0.013714  p :     0.065712
      px      :     0.015782
      py      :     0.036217
 13 H s       :     0.817730  s :     0.817730
      pz      :     0.019387  p :     0.123182
      px      :     0.046567
      py      :     0.057229
 14 H s       :     0.819658  s :     0.819658
      pz      :     0.053533  p :     0.123037
      px      :     0.044720
      py      :     0.024784
 15 H s       :     0.933418  s :     0.933418
      pz      :     0.012388  p :     0.065467
      px      :     0.014190
      py      :     0.038889
 16 H s       :     0.921402  s :     0.921402
      pz      :     0.034814  p :     0.063651
      px      :     0.016227
      py      :     0.012610
 17 H s       :     0.771618  s :     0.771618
      pz      :     0.081584  p :     0.205024
      px      :     0.078191
      py      :     0.045249


                      *****************************
                      * MAYER POPULATION ANALYSIS *
                      *****************************

  NA   - Mulliken gross atomic population
  ZA   - Total nuclear charge
  QA   - Mulliken gross atomic charge
  VA   - Mayer's total valence
  BVA  - Mayer's bonded valence
  FA   - Mayer's free valence

  ATOM       NA         ZA         QA         VA         BVA        FA
  0 C      5.9530     6.0000     0.0470     3.9269     3.9269     0.0000
  1 C      6.1162     6.0000    -0.1162     4.0943     4.0943     0.0000
  2 C      6.2241     6.0000    -0.2241     4.2107     4.2107     0.0000
  3 C      5.8357     6.0000     0.1643     3.9926     3.9926     0.0000
  4 N      7.2254     7.0000    -0.2254     3.1687     3.1687     0.0000
  5 C      5.7118     6.0000     0.2882     3.9919     3.9919    -0.0000
  6 O      8.3051     8.0000    -0.3051     2.1309     2.1309    -0.0000
  7 H      0.9707     1.0000     0.0293     0.9857     0.9857     0.0000
  8 H      0.9645     1.0000     0.0355     0.9864     0.9864     0.0000
  9 H      0.9863     1.0000     0.0137     1.0024     1.0024    -0.0000
 10 H      1.0093     1.0000    -0.0093     0.9938     0.9938     0.0000
 11 H      1.0011     1.0000    -0.0011     0.9845     0.9845     0.0000
 12 H      0.9954     1.0000     0.0046     0.9850     0.9850     0.0000
 13 H      0.8947     1.0000     0.1053     0.9967     0.9967     0.0000
 14 H      0.8998     1.0000     0.1002     0.9965     0.9965     0.0000
 15 H      1.0211     1.0000    -0.0211     0.9703     0.9703     0.0000
 16 H      1.0153     1.0000    -0.0153     0.9899     0.9899    -0.0000
 17 H      0.8705     1.0000     0.1295     1.1198     1.1198     0.0000

  Mayer bond orders larger than 0.1
B(  0-C ,  1-C ) :   1.0978 B(  0-C ,  7-H ) :   0.9398 B(  0-C ,  8-H ) :   0.9428 
B(  0-C ,  9-H ) :   0.9520 B(  1-C ,  2-C ) :   1.9085 B(  1-C , 10-H ) :   0.9293 
B(  2-C ,  3-C ) :   1.0631 B(  2-C ,  5-C ) :   1.0302 B(  3-C ,  4-N ) :   1.0561 
B(  3-C , 11-H ) :   0.9223 B(  3-C , 12-H ) :   0.9024 B(  4-N , 13-H ) :   0.9603 
B(  4-N , 14-H ) :   0.9610 B(  4-N , 17-H ) :   0.1553 B(  5-C ,  6-O ) :   1.0829 
B(  5-C , 15-H ) :   0.9042 B(  5-C , 16-H ) :   0.9263 B(  6-O , 17-H ) :   0.9355 



 *********************************** NBO 6.0 ***********************************
             N A T U R A L   A T O M I C   O R B I T A L   A N D
          N A T U R A L   B O N D   O R B I T A L   A N A L Y S I S
 ***************************** Kiya KiyaLu (100703) ****************************
  (c) Copyright 1996-2015 Board of Regents of the University of Wisconsin System
      on behalf of the Theoretical Chemistry Institute.  All rights reserved.

          Cite this program as:

          NBO 6.0.  E. D. Glendening, J. K. Badenhoop, A. E. Reed,
          J. E. Carpenter, J. A. Bohmann, C. M. Morales, C. R. Landis,
          and F. Weinhold (Theoretical Chemistry Institute, University
          of Wisconsin, Madison, WI, 2013); http://nbo6.chem.wisc.edu/

       /NPA    / : Natural Population Analysis
       /NBO    / : Natural Bond Orbital Analysis
       /AONBO  / : Write the AO to NBO transformation to lfn77
       /FILE   / : Set to 5042

 Filename set to 5042

 Job title:  *** NBO job generated by orca_scf

 Warning: MOs are non-orthogonal; program will continue

 Warning: -3100.99119 electrons reside outside the linearly independent MO space


 NATURAL POPULATIONS:  Natural atomic orbital occupancies

  NAO Atom No lang   Type(AO)    Occupancy      Energy
 -------------------------------------------------------
   1    C  1  s      Cor( 1s)     1.99917      -9.77789
   2    C  1  s      Val( 2s)     1.08568      -0.21432
   3    C  1  s      Ryd( 3s)     0.00025       0.82444
   4    C  1  px     Val( 2p)     1.11712      -0.06604
   5    C  1  px     Ryd( 3p)     0.00093       0.47021
   6    C  1  py     Val( 2p)     1.23026      -0.07334
   7    C  1  py     Ryd( 3p)     0.00095       0.54937
   8    C  1  pz     Val( 2p)     1.23362      -0.07264
   9    C  1  pz     Ryd( 3p)     0.00214       0.58361
  10    C  1  dxy    Ryd( 3d)     0.00041       2.04771
  11    C  1  dxz    Ryd( 3d)     0.00057       2.24317
  12    C  1  dyz    Ryd( 3d)     0.00046       2.25078
  13    C  1  dx2y2  Ryd( 3d)     0.00061       2.31493
  14    C  1  dz2    Ryd( 3d)     0.00033       2.16976

  15    C  2  s      Cor( 1s)     1.99875      -9.76174
  16    C  2  s      Val( 2s)     0.93773      -0.12731
  17    C  2  s      Ryd( 3s)     0.00147       0.54564
  18    C  2  px     Val( 2p)     1.08627      -0.03908
  19    C  2  px     Ryd( 3p)     0.00524       0.83828
  20    C  2  py     Val( 2p)     1.00572      -0.09216
  21    C  2  py     Ryd( 3p)     0.00172       0.55104
  22    C  2  pz     Val( 2p)     1.15277      -0.04071
  23    C  2  pz     Ryd( 3p)     0.00325       0.70092
  24    C  2  dxy    Ryd( 3d)     0.00045       1.92222
  25    C  2  dxz    Ryd( 3d)     0.00087       2.37035
  26    C  2  dyz    Ryd( 3d)     0.00054       2.02190
  27    C  2  dx2y2  Ryd( 3d)     0.00055       2.11176
  28    C  2  dz2    Ryd( 3d)     0.00060       2.18505

  29    C  3  s      Cor( 1s)     1.99877      -9.75848
  30    C  3  s      Val( 2s)     0.87445      -0.10888
  31    C  3  s      Ryd( 3s)     0.00262       0.53187
  32    C  3  px     Val( 2p)     1.08815      -0.05310
  33    C  3  px     Ryd( 3p)     0.00380       0.91573
  34    C  3  py     Val( 2p)     1.02601      -0.08539
  35    C  3  py     Ryd( 3p)     0.00241       0.64192
  36    C  3  pz     Val( 2p)     1.08427      -0.05007
  37    C  3  pz     Ryd( 3p)     0.00426       0.84331
  38    C  3  dxy    Ryd( 3d)     0.00053       1.91718
  39    C  3  dxz    Ryd( 3d)     0.00081       2.27869
  40    C  3  dyz    Ryd( 3d)     0.00068       2.03658
  41    C  3  dx2y2  Ryd( 3d)     0.00066       2.11056
  42    C  3  dz2    Ryd( 3d)     0.00068       2.21081

  43    C  4  s      Cor( 1s)     1.99907      -9.80759
  44    C  4  s      Val( 2s)     0.98940      -0.19280
  45    C  4  s      Ryd( 3s)     0.00245       0.85296
  46    C  4  px     Val( 2p)     1.19028      -0.07434
  47    C  4  px     Ryd( 3p)     0.00421       0.72456
  48    C  4  py     Val( 2p)     1.09611      -0.07869
  49    C  4  py     Ryd( 3p)     0.00150       0.54570
  50    C  4  pz     Val( 2p)     0.95742      -0.07488
  51    C  4  pz     Ryd( 3p)     0.00290       0.50096
  52    C  4  dxy    Ryd( 3d)     0.00060       2.09076
  53    C  4  dxz    Ryd( 3d)     0.00091       2.12612
  54    C  4  dyz    Ryd( 3d)     0.00104       2.13434
  55    C  4  dx2y2  Ryd( 3d)     0.00083       2.38389
  56    C  4  dz2    Ryd( 3d)     0.00098       2.20220

  57    N  5  s      Cor( 1s)     1.99947     -13.85511
  58    N  5  s      Val( 2s)     1.41808      -0.51360
  59    N  5  s      Ryd( 3s)     0.00157       1.09575
  60    N  5  px     Val( 2p)     1.79953      -0.20004
  61    N  5  px     Ryd( 3p)     0.00535       0.90762
  62    N  5  py     Val( 2p)     1.33725      -0.18289
  63    N  5  py     Ryd( 3p)     0.00246       0.90610
  64    N  5  pz     Val( 2p)     1.31450      -0.18585
  65    N  5  pz     Ryd( 3p)     0.00261       0.89847
  66    N  5  dxy    Ryd( 3d)     0.00112       2.53576
  67    N  5  dxz    Ryd( 3d)     0.00105       2.46387
  68    N  5  dyz    Ryd( 3d)     0.00037       2.62089
  69    N  5  dx2y2  Ryd( 3d)     0.00084       2.44309
  70    N  5  dz2    Ryd( 3d)     0.00064       2.56737

  71    C  6  s      Cor( 1s)     1.99900      -9.80914
  72    C  6  s      Val( 2s)     0.98251      -0.17221
  73    C  6  s      Ryd( 3s)     0.00183       0.79983
  74    C  6  px     Val( 2p)     1.00937      -0.04364
  75    C  6  px     Ryd( 3p)     0.00464       0.52395
  76    C  6  py     Val( 2p)     1.04350      -0.04984
  77    C  6  py     Ryd( 3p)     0.00291       0.62602
  78    C  6  pz     Val( 2p)     1.02288      -0.05631
  79    C  6  pz     Ryd( 3p)     0.00511       0.65927
  80    C  6  dxy    Ryd( 3d)     0.00097       2.08045
  81    C  6  dxz    Ryd( 3d)     0.00112       2.18720
  82    C  6  dyz    Ryd( 3d)     0.00114       2.14276
  83    C  6  dx2y2  Ryd( 3d)     0.00156       2.28292
  84    C  6  dz2    Ryd( 3d)     0.00143       2.25127

  85    O  7  s      Cor( 1s)     1.99976     -18.52272
  86    O  7  s      Val( 2s)     1.66764      -0.74723
  87    O  7  s      Ryd( 3s)     0.00076       1.47754
  88    O  7  px     Val( 2p)     1.79028      -0.21543
  89    O  7  px     Ryd( 3p)     0.00162       1.08360
  90    O  7  py     Val( 2p)     1.77758      -0.20879
  91    O  7  py     Ryd( 3p)     0.00185       1.07745
  92    O  7  pz     Val( 2p)     1.50438      -0.20964
  93    O  7  pz     Ryd( 3p)     0.00302       1.23091
  94    O  7  dxy    Ryd( 3d)     0.00128       2.79041
  95    O  7  dxz    Ryd( 3d)     0.00147       3.13455
  96    O  7  dyz    Ryd( 3d)     0.00062       2.88737
  97    O  7  dx2y2  Ryd( 3d)     0.00129       2.77722
  98    O  7  dz2    Ryd( 3d)     0.00054       2.86681

  99    H  8  s      Val( 1s)     0.76138       0.06207
 100    H  8  s      Ryd( 2s)     0.00172       0.32628
 101    H  8  px     Ryd( 2p)     0.00017       1.68984
 102    H  8  py     Ryd( 2p)     0.00073       2.21740
 103    H  8  pz     Ryd( 2p)     0.00022       1.78206

 104    H  9  s      Val( 1s)     0.76086       0.06222
 105    H  9  s      Ryd( 2s)     0.00165       0.32794
 106    H  9  px     Ryd( 2p)     0.00020       1.72616
 107    H  9  py     Ryd( 2p)     0.00041       1.94906
 108    H  9  pz     Ryd( 2p)     0.00050       2.04711

 109    H 10  s      Val( 1s)     0.77899       0.06223
 110    H 10  s      Ryd( 2s)     0.00160       0.37794
 111    H 10  px     Ryd( 2p)     0.00035       1.89793
 112    H 10  py     Ryd( 2p)     0.00020       1.71039
 113    H 10  pz     Ryd( 2p)     0.00054       2.08353

 114    H 11  s      Val( 1s)     0.78216       0.07473
 115    H 11  s      Ryd( 2s)     0.00267       0.34700
 116    H 11  px     Ryd( 2p)     0.00037       2.04119
 117    H 11  py     Ryd( 2p)     0.00024       1.67292
 118    H 11  pz     Ryd( 2p)     0.00057       2.11816

 119    H 12  s      Val( 1s)     0.79794       0.06089
 120    H 12  s      Ryd( 2s)     0.00242       0.37882
 121    H 12  px     Ryd( 2p)     0.00088       2.26779
 122    H 12  py     Ryd( 2p)     0.00013       1.71949
 123    H 12  pz     Ryd( 2p)     0.00014       1.71023

 124    H 13  s      Val( 1s)     0.77025       0.05729
 125    H 13  s      Ryd( 2s)     0.00296       0.32498
 126    H 13  px     Ryd( 2p)     0.00021       1.81574
 127    H 13  py     Ryd( 2p)     0.00083       2.18952
 128    H 13  pz     Ryd( 2p)     0.00013       1.74266

 129    H 14  s      Val( 1s)     0.62453       0.07291
 130    H 14  s      Ryd( 2s)     0.00336       0.36856
 131    H 14  px     Ryd( 2p)     0.00077       1.79394
 132    H 14  py     Ryd( 2p)     0.00123       2.24238
 133    H 14  pz     Ryd( 2p)     0.00036       1.74418

 134    H 15  s      Val( 1s)     0.62425       0.07287
 135    H 15  s      Ryd( 2s)     0.00262       0.35037
 136    H 15  px     Ryd( 2p)     0.00080       1.76635
 137    H 15  py     Ryd( 2p)     0.00050       1.82576
 138    H 15  pz     Ryd( 2p)     0.00107       2.21772

 139    H 16  s      Val( 1s)     0.81926       0.06322
 140    H 16  s      Ryd( 2s)     0.00411       0.35484
 141    H 16  px     Ryd( 2p)     0.00029       1.77482
 142    H 16  py     Ryd( 2p)     0.00079       2.22412
 143    H 16  pz     Ryd( 2p)     0.00019       1.79013

 144    H 17  s      Val( 1s)     0.79558       0.07902
 145    H 17  s      Ryd( 2s)     0.00211       0.35118
 146    H 17  px     Ryd( 2p)     0.00029       1.81453
 147    H 17  py     Ryd( 2p)     0.00016       1.76429
 148    H 17  pz     Ryd( 2p)     0.00071       2.18872

 149    H 18  s      Val( 1s)     0.51838       0.12639
 150    H 18  s      Ryd( 2s)     0.00402       0.48426
 151    H 18  px     Ryd( 2p)     0.00131       2.10748
 152    H 18  py     Ryd( 2p)     0.00114       1.72615
 153    H 18  pz     Ryd( 2p)     0.00162       2.24248

   1 low occupancy (<1.9990e) core orbital  found on  C  2
   1 low occupancy (<1.9990e) core orbital  found on  C  3


 Summary of Natural Population Analysis:

                                     Natural Population
             Natural    ---------------------------------------------
  Atom No    Charge        Core      Valence    Rydberg      Total
 --------------------------------------------------------------------
    C  1   -0.67250      1.99917     4.66667    0.00666     6.67250
    C  2   -0.19592      1.99875     4.18249    0.01468     6.19592
    C  3   -0.08811      1.99877     4.07288    0.01645     6.08811
    C  4   -0.24771      1.99907     4.23321    0.01543     6.24771
    N  5   -0.88486      1.99947     5.86937    0.01602     7.88486
    C  6   -0.07797      1.99900     4.05827    0.02070     6.07797
    O  7   -0.75207      1.99976     6.73987    0.01245     8.75207
    H  8    0.23578      0.00000     0.76138    0.00284     0.76422
    H  9    0.23639      0.00000     0.76086    0.00276     0.76361
    H 10    0.21832      0.00000     0.77899    0.00269     0.78168
    H 11    0.21399      0.00000     0.78216    0.00384     0.78601
    H 12    0.19849      0.00000     0.79794    0.00357     0.80151
    H 13    0.22563      0.00000     0.77025    0.00413     0.77437
    H 14    0.36975      0.00000     0.62453    0.00571     0.63025
    H 15    0.37077      0.00000     0.62425    0.00498     0.62923
    H 16    0.17535      0.00000     0.81926    0.00538     0.82465
    H 17    0.20115      0.00000     0.79558    0.00327     0.79885
    H 18    0.47352      0.00000     0.51838    0.00810     0.52648
 ====================================================================
 * Total *  0.00000     13.99399    41.85634    0.14967    56.00000

                                 Natural Population
 ---------------------------------------------------------
   Core                      13.99399 ( 99.9571% of   14)
   Valence                   41.85634 ( 99.6580% of   42)
   Natural Minimal Basis     55.85033 ( 99.7327% of   56)
   Natural Rydberg Basis      0.14967 (  0.2673% of   56)
 ---------------------------------------------------------

    Atom No         Natural Electron Configuration
 ----------------------------------------------------------------------------
      C  1      [core]2s( 1.09)2p( 3.58)
      C  2      [core]2s( 0.94)2p( 3.24)3p( 0.01)
      C  3      [core]2s( 0.87)2p( 3.20)3p( 0.01)
      C  4      [core]2s( 0.99)2p( 3.24)3p( 0.01)
      N  5      [core]2s( 1.42)2p( 4.45)3p( 0.01)
      C  6      [core]2s( 0.98)2p( 3.08)3p( 0.01)3d( 0.01)
      O  7      [core]2s( 1.67)2p( 5.07)3p( 0.01)3d( 0.01)
      H  8            1s( 0.76)
      H  9            1s( 0.76)
      H 10            1s( 0.78)
      H 11            1s( 0.78)
      H 12            1s( 0.80)
      H 13            1s( 0.77)
      H 14            1s( 0.62)
      H 15            1s( 0.62)
      H 16            1s( 0.82)
      H 17            1s( 0.80)
      H 18            1s( 0.52)


 NATURAL BOND ORBITAL ANALYSIS:

                            Occupancies       Lewis Structure    Low   High
         Max    Occ     -------------------  -----------------   occ   occ
  Cycle  Ctr   Thresh    Lewis   non-Lewis     CR  BD  nC  LP    (L)   (NL)
 ============================================================================
    1     2     1.90    55.42340   0.57660      7  18   0   3     0      0
    2     2     1.54    55.42340   0.57660      7  18   0   3     0      0
    3     2     1.51    54.94653   1.05347      7  17   0   4     0      1
    4     2     1.90    55.42340   0.57660      7  18   0   3     0      0
 ----------------------------------------------------------------------------

 Structure accepted: No low occupancy Lewis orbitals

 -------------------------------------------------------
   Core                     13.99399 ( 99.957% of  14)
   Valence Lewis            41.42941 ( 98.641% of  42)
  ==================      =============================
   Total Lewis              55.42340 ( 98.970% of  56)
  -----------------------------------------------------
   Valence non-Lewis         0.47730 (  0.852% of  56)
   Rydberg non-Lewis         0.09930 (  0.177% of  56)
  ==================      =============================
   Total non-Lewis           0.57660 (  1.030% of  56)
 -------------------------------------------------------


     (Occupancy)   Bond orbital / Coefficients / Hybrids
 ------------------ Lewis ------------------------------------------------------
   1. (1.99917) CR ( 1) C  1            s(100.00%)
                                         1.0000  0.0000  0.0000  0.0000  0.0000
                                         0.0000  0.0000  0.0000  0.0000  0.0000
                                         0.0000  0.0000  0.0000  0.0000
   2. (1.99875) CR ( 1) C  2            s(100.00%)
                                         1.0000  0.0000  0.0000  0.0000  0.0000
                                         0.0000  0.0000  0.0000  0.0000  0.0000
                                         0.0000  0.0000  0.0000  0.0000
   3. (1.99877) CR ( 1) C  3            s(100.00%)
                                         1.0000  0.0000  0.0000  0.0000  0.0000
                                         0.0000  0.0000  0.0000  0.0000  0.0000
                                         0.0000  0.0000  0.0000  0.0000
   4. (1.99907) CR ( 1) C  4            s(100.00%)
                                         1.0000  0.0000  0.0000  0.0000  0.0000
                                         0.0000  0.0000  0.0000  0.0000  0.0000
                                         0.0000  0.0000  0.0000  0.0000
   5. (1.99947) CR ( 1) N  5            s(100.00%)
                                         1.0000  0.0000  0.0000  0.0000  0.0000
                                         0.0000  0.0000  0.0000  0.0000  0.0000
                                         0.0000  0.0000  0.0000  0.0000
   6. (1.99900) CR ( 1) C  6            s(100.00%)
                                         1.0000  0.0000  0.0000  0.0000  0.0000
                                         0.0000  0.0000  0.0000  0.0000  0.0000
                                         0.0000  0.0000  0.0000  0.0000
   7. (1.99976) CR ( 1) O  7            s(100.00%)
                                         1.0000  0.0000  0.0000  0.0000  0.0000
                                         0.0000  0.0000  0.0000  0.0000  0.0000
                                         0.0000  0.0000  0.0000  0.0000
   8. (1.92375) LP ( 1) N  5            s( 19.30%)p 4.18( 80.65%)d 0.00(  0.04%)
                                         0.0000  0.4390 -0.0176  0.8904  0.0443
                                        -0.0906 -0.0005  0.0594 -0.0079  0.0030
                                        -0.0025  0.0002 -0.0175  0.0102
   9. (1.97137) LP ( 1) O  7            s( 45.19%)p 1.21( 54.77%)d 0.00(  0.04%)
                                         0.0000  0.6722 -0.0107  0.5052 -0.0076
                                        -0.5241  0.0089 -0.1327  0.0016  0.0153
                                         0.0029 -0.0061 -0.0024  0.0118
  10. (1.94392) LP ( 2) O  7            s(  1.01%)p98.42( 98.94%)d 0.06(  0.06%)
                                         0.0000  0.1001  0.0050  0.6511 -0.0133
                                         0.6693 -0.0111  0.3423 -0.0068 -0.0050
                                        -0.0055  0.0059 -0.0220  0.0038
  11. (1.98473) BD ( 1) C  1- C  2
               ( 50.34%)   0.7095* C  1 s( 30.63%)p 2.26( 69.34%)d 0.00(  0.04%)
                                         0.0000  0.5534  0.0009  0.8134  0.0014
                                         0.0849 -0.0041  0.1564 -0.0080  0.0030
                                         0.0053  0.0002  0.0154 -0.0088
               ( 49.66%)   0.7047* C  2 s( 33.33%)p 2.00( 66.63%)d 0.00(  0.04%)
                                         0.0000  0.5772  0.0112 -0.8027 -0.0019
                                        -0.0730 -0.0095 -0.1260 -0.0271  0.0026
                                         0.0042  0.0022  0.0176 -0.0072
  12. (1.97397) BD ( 1) C  1- H  8
               ( 61.73%)   0.7857* C  1 s( 22.64%)p 3.42( 77.33%)d 0.00(  0.04%)
                                         0.0000  0.4758  0.0016 -0.1889 -0.0087
                                        -0.8199  0.0021 -0.2554  0.0024  0.0043
                                         0.0019  0.0093 -0.0142 -0.0067
               ( 38.27%)   0.6187* H  8 s( 99.90%)p 0.00(  0.10%)
                                         0.9995 -0.0020  0.0077  0.0291  0.0089
  13. (1.97251) BD ( 1) C  1- H  9
               ( 61.75%)   0.7858* C  1 s( 22.64%)p 3.42( 77.33%)d 0.00(  0.04%)
                                         0.0000  0.4758  0.0003 -0.2549 -0.0098
                                         0.5366 -0.0009 -0.6482  0.0028 -0.0043
                                         0.0059 -0.0155 -0.0053  0.0069
               ( 38.25%)   0.6185* H  9 s( 99.91%)p 0.00(  0.09%)
                                         0.9995 -0.0020  0.0096 -0.0185  0.0221
  14. (1.98677) BD ( 1) C  1- H 10
               ( 61.07%)   0.7815* C  1 s( 24.07%)p 3.15( 75.90%)d 0.00(  0.04%)
                                         0.0000  0.4906 -0.0020 -0.4869 -0.0138
                                         0.1789 -0.0046  0.6997 -0.0111 -0.0037
                                        -0.0142  0.0055  0.0043  0.0093
               ( 38.93%)   0.6239* H 10 s( 99.91%)p 0.00(  0.09%)
                                         0.9996 -0.0017  0.0182 -0.0056 -0.0225
  15. (1.97606) BD ( 1) C  2- C  3
               ( 49.50%)   0.7036* C  2 s( 40.65%)p 1.46( 59.30%)d 0.00(  0.06%)
                                         0.0000  0.6375  0.0064  0.3355  0.0138
                                         0.2206 -0.0002  0.6569 -0.0016  0.0054
                                         0.0138  0.0117  0.0048  0.0132
               ( 50.50%)   0.7106* C  3 s( 39.07%)p 1.56( 60.89%)d 0.00(  0.04%)
                                         0.0000  0.6249  0.0111 -0.3735 -0.0045
                                        -0.2704 -0.0069 -0.6292 -0.0170  0.0055
                                         0.0125  0.0104  0.0049  0.0103
  16. (1.92293) BD ( 2) C  2- C  3
               ( 49.12%)   0.7009* C  2 s(  0.02%)p99.99( 99.92%)d 2.64(  0.06%)
                                         0.0000  0.0148 -0.0034 -0.0252 -0.0021
                                         0.9468 -0.0123 -0.3194  0.0005  0.0092
                                        -0.0039  0.0173 -0.0079 -0.0121
               ( 50.88%)   0.7133* C  3 s(  0.02%)p99.99( 99.93%)d 2.70(  0.05%)
                                         0.0000  0.0123  0.0068 -0.0476 -0.0011
                                         0.9314 -0.0094 -0.3596  0.0004 -0.0106
                                         0.0041 -0.0154  0.0069  0.0110
  17. (1.97138) BD ( 1) C  2- H 11
               ( 60.94%)   0.7807* C  2 s( 25.96%)p 2.85( 74.00%)d 0.00(  0.04%)
                                         0.0000  0.5093 -0.0148  0.4913 -0.0077
                                        -0.2211 -0.0006 -0.6706  0.0022 -0.0043
                                        -0.0143  0.0063  0.0058  0.0074
               ( 39.06%)   0.6250* H 11 s( 99.90%)p 0.00(  0.10%)
                                         0.9995 -0.0042 -0.0190  0.0083  0.0239
  18. (1.96956) BD ( 1) C  3- C  4
               ( 49.79%)   0.7056* C  3 s( 30.58%)p 2.27( 69.39%)d 0.00(  0.04%)
                                         0.0000  0.5529 -0.0062 -0.4052 -0.0039
                                         0.2376  0.0039  0.6878 -0.0097 -0.0039
                                        -0.0121  0.0080  0.0057  0.0108
               ( 50.21%)   0.7086* C  4 s( 30.16%)p 2.31( 69.80%)d 0.00(  0.04%)
                                         0.0000  0.5491 -0.0075  0.3860 -0.0111
                                        -0.2545  0.0148 -0.6956  0.0037 -0.0060
                                        -0.0139  0.0090  0.0013  0.0082
  19. (1.97179) BD ( 1) C  3- C  6
               ( 51.87%)   0.7202* C  3 s( 30.26%)p 2.30( 69.71%)d 0.00(  0.03%)
                                         0.0000  0.5501 -0.0043  0.8329 -0.0063
                                         0.0476 -0.0012  0.0318 -0.0088  0.0015
                                         0.0011  0.0021  0.0170 -0.0059
               ( 48.13%)   0.6937* C  6 s( 31.16%)p 2.21( 68.80%)d 0.00(  0.05%)
                                         0.0000  0.5581 -0.0105 -0.8263  0.0082
                                        -0.0696  0.0073 -0.0091 -0.0131  0.0029
                                        -0.0007  0.0006  0.0185 -0.0103
  20. (1.98760) BD ( 1) C  4- N  5
               ( 39.48%)   0.6283* C  4 s( 22.90%)p 3.36( 76.99%)d 0.00(  0.11%)
                                         0.0000  0.4776  0.0299  0.1919 -0.0016
                                        -0.5252 -0.0169  0.6749  0.0395 -0.0091
                                         0.0108 -0.0258 -0.0090  0.0125
               ( 60.52%)   0.7780* N  5 s( 33.48%)p 1.99( 66.46%)d 0.00(  0.05%)
                                         0.0000  0.5786  0.0022 -0.1943  0.0034
                                         0.4884 -0.0102 -0.6231 -0.0032 -0.0111
                                         0.0143 -0.0115 -0.0063  0.0067
  21. (1.98600) BD ( 1) C  4- H 12
               ( 60.71%)   0.7792* C  4 s( 24.81%)p 3.03( 75.15%)d 0.00(  0.04%)
                                         0.0000  0.4981 -0.0063 -0.8615  0.0098
                                         0.0198  0.0137 -0.0920  0.0120 -0.0013
                                         0.0040  0.0005  0.0158 -0.0092
               ( 39.29%)   0.6268* H 12 s( 99.90%)p 0.00(  0.10%)
                                         0.9995 -0.0055  0.0317 -0.0031  0.0049
  22. (1.96759) BD ( 1) C  4- H 13
               ( 61.47%)   0.7840* C  4 s( 22.14%)p 3.51( 77.82%)d 0.00(  0.04%)
                                         0.0000  0.4705 -0.0035  0.2665 -0.0179
                                         0.8107 -0.0018  0.2228 -0.0038  0.0119
                                         0.0027  0.0081 -0.0110 -0.0074
               ( 38.53%)   0.6207* H 13 s( 99.89%)p 0.00(  0.11%)
                                         0.9994 -0.0053 -0.0091 -0.0321 -0.0063
  23. (1.99082) BD ( 1) N  5- H 14
               ( 68.89%)   0.8300* N  5 s( 23.52%)p 3.25( 76.41%)d 0.00(  0.07%)
                                         0.0000  0.4849  0.0080 -0.3156 -0.0002
                                        -0.8097  0.0348 -0.0870 -0.0093  0.0240
                                         0.0024  0.0042 -0.0056 -0.0082
               ( 31.11%)   0.5577* H 14 s( 99.79%)p 0.00(  0.21%)
                                         0.9990 -0.0045  0.0123  0.0433  0.0063
  24. (1.98917) BD ( 1) N  5- H 15
               ( 68.87%)   0.8299* N  5 s( 23.62%)p 3.23( 76.31%)d 0.00(  0.07%)
                                         0.0000  0.4858  0.0138 -0.2595 -0.0078
                                         0.3091  0.0000  0.7740 -0.0320 -0.0085
                                        -0.0220  0.0102  0.0007  0.0083
               ( 31.13%)   0.5580* H 15 s( 99.81%)p 0.00(  0.19%)
                                         0.9990 -0.0038  0.0095 -0.0168 -0.0396
  25. (1.99076) BD ( 1) C  6- O  7
               ( 33.94%)   0.5825* C  6 s( 21.24%)p 3.70( 78.57%)d 0.01(  0.19%)
                                         0.0000  0.4596  0.0338  0.3484  0.0429
                                        -0.5410 -0.0302  0.6071  0.0166 -0.0171
                                         0.0185 -0.0335 -0.0081  0.0106
               ( 66.06%)   0.8128* O  7 s( 30.00%)p 2.33( 69.92%)d 0.00(  0.09%)
                                         0.0000  0.5477  0.0064 -0.3298  0.0089
                                         0.5256  0.0033 -0.5602 -0.0129 -0.0211
                                         0.0110 -0.0170 -0.0014 -0.0025
  26. (1.97884) BD ( 1) C  6- H 16
               ( 59.77%)   0.7731* C  6 s( 23.49%)p 3.25( 76.46%)d 0.00(  0.04%)
                                         0.0000  0.4846 -0.0105  0.2571  0.0175
                                         0.8095 -0.0076  0.2069 -0.0112  0.0063
                                        -0.0001  0.0083 -0.0155 -0.0093
               ( 40.23%)   0.6343* H 16 s( 99.89%)p 0.00(  0.11%)
                                         0.9994 -0.0097 -0.0112 -0.0302 -0.0061
  27. (1.98163) BD ( 1) C  6- H 17
               ( 60.47%)   0.7776* C  6 s( 24.06%)p 3.15( 75.90%)d 0.00(  0.04%)
                                         0.0000  0.4905  0.0024  0.3572  0.0137
                                        -0.2112  0.0029 -0.7656  0.0230 -0.0015
                                        -0.0115  0.0091  0.0020  0.0137
               ( 39.53%)   0.6287* H 17 s( 99.90%)p 0.00(  0.10%)
                                         0.9995 -0.0041 -0.0135  0.0070  0.0283
  28. (1.98828) BD ( 1) O  7- H 18
               ( 75.49%)   0.8688* O  7 s( 23.79%)p 3.20( 76.09%)d 0.00(  0.12%)
                                         0.0000  0.4876  0.0129 -0.4589 -0.0020
                                        -0.0053 -0.0182  0.7405  0.0388 -0.0096
                                        -0.0283  0.0068  0.0132  0.0073
               ( 24.51%)   0.4951* H 18 s( 99.62%)p 0.00(  0.38%)
                                         0.9979 -0.0191  0.0322  0.0031 -0.0520
 ---------------- non-Lewis ----------------------------------------------------
  29. (0.01548) BD*( 1) C  1- C  2
               ( 49.66%)   0.7047* C  1 s( 30.63%)p 2.26( 69.34%)d 0.00(  0.04%)
                                         0.0000 -0.5534 -0.0009 -0.8134 -0.0014
                                        -0.0849  0.0041 -0.1564  0.0080 -0.0030
                                        -0.0053 -0.0002 -0.0154  0.0088
               ( 50.34%)  -0.7095* C  2 s( 33.33%)p 2.00( 66.63%)d 0.00(  0.04%)
                                         0.0000 -0.5772 -0.0112  0.8027  0.0019
                                         0.0730  0.0095  0.1260  0.0271 -0.0026
                                        -0.0042 -0.0022 -0.0176  0.0072
  30. (0.01072) BD*( 1) C  1- H  8
               ( 38.27%)   0.6187* C  1 s( 22.64%)p 3.42( 77.33%)d 0.00(  0.04%)
                                         0.0000 -0.4758 -0.0016  0.1889  0.0087
                                         0.8199 -0.0021  0.2554 -0.0024 -0.0043
                                        -0.0019 -0.0093  0.0142  0.0067
               ( 61.73%)  -0.7857* H  8 s( 99.90%)p 0.00(  0.10%)
                                        -0.9995  0.0020 -0.0077 -0.0291 -0.0089
  31. (0.01135) BD*( 1) C  1- H  9
               ( 38.25%)   0.6185* C  1 s( 22.64%)p 3.42( 77.33%)d 0.00(  0.04%)
                                         0.0000 -0.4758 -0.0003  0.2549  0.0098
                                        -0.5366  0.0009  0.6482 -0.0028  0.0043
                                        -0.0059  0.0155  0.0053 -0.0069
               ( 61.75%)  -0.7858* H  9 s( 99.91%)p 0.00(  0.09%)
                                        -0.9995  0.0020 -0.0096  0.0185 -0.0221
  32. (0.01025) BD*( 1) C  1- H 10
               ( 38.93%)   0.6239* C  1 s( 24.07%)p 3.15( 75.90%)d 0.00(  0.04%)
                                         0.0000 -0.4906  0.0020  0.4869  0.0138
                                        -0.1789  0.0046 -0.6997  0.0111  0.0037
                                         0.0142 -0.0055 -0.0043 -0.0093
               ( 61.07%)  -0.7815* H 10 s( 99.91%)p 0.00(  0.09%)
                                        -0.9996  0.0017 -0.0182  0.0056  0.0225
  33. (0.02517) BD*( 1) C  2- C  3
               ( 50.50%)   0.7106* C  2 s( 40.65%)p 1.46( 59.30%)d 0.00(  0.06%)
                                         0.0000  0.6375  0.0064  0.3355  0.0138
                                         0.2206 -0.0002  0.6569 -0.0016  0.0054
                                         0.0138  0.0117  0.0048  0.0132
               ( 49.50%)  -0.7036* C  3 s( 39.07%)p 1.56( 60.89%)d 0.00(  0.04%)
                                         0.0000  0.6249  0.0111 -0.3735 -0.0045
                                        -0.2704 -0.0069 -0.6292 -0.0170  0.0055
                                         0.0125  0.0104  0.0049  0.0103
  34. (0.09216) BD*( 2) C  2- C  3
               ( 50.88%)   0.7133* C  2 s(  0.02%)p99.99( 99.92%)d 2.64(  0.06%)
                                         0.0000  0.0148 -0.0034 -0.0252 -0.0021
                                         0.9468 -0.0123 -0.3194  0.0005  0.0092
                                        -0.0039  0.0173 -0.0079 -0.0121
               ( 49.12%)  -0.7009* C  3 s(  0.02%)p99.99( 99.93%)d 2.70(  0.05%)
                                         0.0000  0.0123  0.0068 -0.0476 -0.0011
                                         0.9314 -0.0094 -0.3596  0.0004 -0.0106
                                         0.0041 -0.0154  0.0069  0.0110
  35. (0.02130) BD*( 1) C  2- H 11
               ( 39.06%)   0.6250* C  2 s( 25.96%)p 2.85( 74.00%)d 0.00(  0.04%)
                                         0.0000 -0.5093  0.0148 -0.4913  0.0077
                                         0.2211  0.0006  0.6706 -0.0022  0.0043
                                         0.0143 -0.0063 -0.0058 -0.0074
               ( 60.94%)  -0.7807* H 11 s( 99.90%)p 0.00(  0.10%)
                                        -0.9995  0.0042  0.0190 -0.0083 -0.0239
  36. (0.03712) BD*( 1) C  3- C  4
               ( 50.21%)   0.7086* C  3 s( 30.58%)p 2.27( 69.39%)d 0.00(  0.04%)
                                         0.0000  0.5529 -0.0062 -0.4052 -0.0039
                                         0.2376  0.0039  0.6878 -0.0097 -0.0039
                                        -0.0121  0.0080  0.0057  0.0108
               ( 49.79%)  -0.7056* C  4 s( 30.16%)p 2.31( 69.80%)d 0.00(  0.04%)
                                         0.0000  0.5491 -0.0075  0.3860 -0.0111
                                        -0.2545  0.0148 -0.6956  0.0037 -0.0060
                                        -0.0139  0.0090  0.0013  0.0082
  37. (0.03899) BD*( 1) C  3- C  6
               ( 48.13%)   0.6937* C  3 s( 30.26%)p 2.30( 69.71%)d 0.00(  0.03%)
                                         0.0000 -0.5501  0.0043 -0.8329  0.0063
                                        -0.0476  0.0012 -0.0318  0.0088 -0.0015
                                        -0.0011 -0.0021 -0.0170  0.0059
               ( 51.87%)  -0.7202* C  6 s( 31.16%)p 2.21( 68.80%)d 0.00(  0.05%)
                                         0.0000 -0.5581  0.0105  0.8263 -0.0082
                                         0.0696 -0.0073  0.0091  0.0131 -0.0029
                                         0.0007 -0.0006 -0.0185  0.0103
  38. (0.01825) BD*( 1) C  4- N  5
               ( 60.52%)   0.7780* C  4 s( 22.90%)p 3.36( 76.99%)d 0.00(  0.11%)
                                         0.0000  0.4776  0.0299  0.1919 -0.0016
                                        -0.5252 -0.0169  0.6749  0.0395 -0.0091
                                         0.0108 -0.0258 -0.0090  0.0125
               ( 39.48%)  -0.6283* N  5 s( 33.48%)p 1.99( 66.46%)d 0.00(  0.05%)
                                         0.0000  0.5786  0.0022 -0.1943  0.0034
                                         0.4884 -0.0102 -0.6231 -0.0032 -0.0111
                                         0.0143 -0.0115 -0.0063  0.0067
  39. (0.03033) BD*( 1) C  4- H 12
               ( 39.29%)   0.6268* C  4 s( 24.81%)p 3.03( 75.15%)d 0.00(  0.04%)
                                         0.0000 -0.4981  0.0063  0.8615 -0.0098
                                        -0.0198 -0.0137  0.0920 -0.0120  0.0013
                                        -0.0040 -0.0005 -0.0158  0.0092
               ( 60.71%)  -0.7792* H 12 s( 99.90%)p 0.00(  0.10%)
                                        -0.9995  0.0055 -0.0317  0.0031 -0.0049
  40. (0.02125) BD*( 1) C  4- H 13
               ( 38.53%)   0.6207* C  4 s( 22.14%)p 3.51( 77.82%)d 0.00(  0.04%)
                                         0.0000 -0.4705  0.0035 -0.2665  0.0179
                                        -0.8107  0.0018 -0.2228  0.0038 -0.0119
                                        -0.0027 -0.0081  0.0110  0.0074
               ( 61.47%)  -0.7840* H 13 s( 99.89%)p 0.00(  0.11%)
                                        -0.9994  0.0053  0.0091  0.0321  0.0063
  41. (0.00950) BD*( 1) N  5- H 14
               ( 31.11%)   0.5577* N  5 s( 23.52%)p 3.25( 76.41%)d 0.00(  0.07%)
                                         0.0000 -0.4849 -0.0080  0.3156  0.0002
                                         0.8097 -0.0348  0.0870  0.0093 -0.0240
                                        -0.0024 -0.0042  0.0056  0.0082
               ( 68.89%)  -0.8300* H 14 s( 99.79%)p 0.00(  0.21%)
                                        -0.9990  0.0045 -0.0123 -0.0433 -0.0063
  42. (0.00891) BD*( 1) N  5- H 15
               ( 31.13%)   0.5580* N  5 s( 23.62%)p 3.23( 76.31%)d 0.00(  0.07%)
                                         0.0000 -0.4858 -0.0138  0.2595  0.0078
                                        -0.3091  0.0000 -0.7740  0.0320  0.0085
                                         0.0220 -0.0102 -0.0007 -0.0083
               ( 68.87%)  -0.8299* H 15 s( 99.81%)p 0.00(  0.19%)
                                        -0.9990  0.0038 -0.0095  0.0168  0.0396
  43. (0.02201) BD*( 1) C  6- O  7
               ( 66.06%)   0.8128* C  6 s( 21.24%)p 3.70( 78.57%)d 0.01(  0.19%)
                                         0.0000  0.4596  0.0338  0.3484  0.0429
                                        -0.5410 -0.0302  0.6071  0.0166 -0.0171
                                         0.0185 -0.0335 -0.0081  0.0106
               ( 33.94%)  -0.5825* O  7 s( 30.00%)p 2.33( 69.92%)d 0.00(  0.09%)
                                         0.0000  0.5477  0.0064 -0.3298  0.0089
                                         0.5256  0.0033 -0.5602 -0.0129 -0.0211
                                         0.0110 -0.0170 -0.0014 -0.0025
  44. (0.03998) BD*( 1) C  6- H 16
               ( 40.23%)   0.6343* C  6 s( 23.49%)p 3.25( 76.46%)d 0.00(  0.04%)
                                         0.0000 -0.4846  0.0105 -0.2571 -0.0175
                                        -0.8095  0.0076 -0.2069  0.0112 -0.0063
                                         0.0001 -0.0083  0.0155  0.0093
               ( 59.77%)  -0.7731* H 16 s( 99.89%)p 0.00(  0.11%)
                                        -0.9994  0.0097  0.0112  0.0302  0.0061
  45. (0.02164) BD*( 1) C  6- H 17
               ( 39.53%)   0.6287* C  6 s( 24.06%)p 3.15( 75.90%)d 0.00(  0.04%)
                                         0.0000 -0.4905 -0.0024 -0.3572 -0.0137
                                         0.2112 -0.0029  0.7656 -0.0230  0.0015
                                         0.0115 -0.0091 -0.0020 -0.0137
               ( 60.47%)  -0.7776* H 17 s( 99.90%)p 0.00(  0.10%)
                                        -0.9995  0.0041  0.0135 -0.0070 -0.0283
  46. (0.04289) BD*( 1) O  7- H 18
               ( 24.51%)   0.4951* O  7 s( 23.79%)p 3.20( 76.09%)d 0.00(  0.12%)
                                         0.0000 -0.4876 -0.0129  0.4589  0.0020
                                         0.0053  0.0182 -0.7405 -0.0388  0.0096
                                         0.0283 -0.0068 -0.0132 -0.0073
               ( 75.49%)  -0.8688* H 18 s( 99.62%)p 0.00(  0.38%)
                                        -0.9979  0.0191 -0.0322 -0.0031  0.0520
  47. (0.00243) RY ( 1) C  1            s(  1.59%)p56.62( 89.98%)d 5.30(  8.43%)
                                         0.0000  0.0072  0.1259  0.0013 -0.0544
                                         0.0055  0.3568  0.0152  0.8771  0.1056
                                         0.2587  0.0366 -0.0520  0.0467
  48. (0.00114) RY ( 2) C  1            s(  0.27%)p99.99( 61.90%)d99.99( 37.82%)
                                         0.0000  0.0001  0.0524 -0.0008  0.0611
                                        -0.0095 -0.7268  0.0040  0.2949 -0.5212
                                         0.2245 -0.1756  0.0971  0.1261
  49. (0.00066) RY ( 3) C  1            s( 25.24%)p 2.89( 72.97%)d 0.07(  1.78%)
                                         0.0000  0.0125  0.5023 -0.0112  0.8521
                                         0.0011  0.0588 -0.0007 -0.0091  0.0181
                                        -0.1070  0.0184  0.0713 -0.0257
  50. (0.00011) RY ( 4) C  1            s( 20.95%)p 0.80( 16.72%)d 2.98( 62.33%)
                                         0.0000 -0.0056  0.4577  0.0030 -0.3840
                                        -0.0031  0.0336 -0.0113  0.1358 -0.2022
                                        -0.6162  0.0196  0.4196 -0.1620
  51. (0.00005) RY ( 5) C  1            s( 18.10%)p 1.13( 20.54%)d 3.39( 61.36%)
  52. (0.00002) RY ( 6) C  1            s(  4.34%)p 4.88( 21.18%)d17.15( 74.48%)
  53. (0.00000) RY ( 7) C  1            s( 21.79%)p 0.66( 14.49%)d 2.92( 63.73%)
  54. (0.00000) RY ( 8) C  1            s(  7.68%)p 0.26(  2.00%)d11.77( 90.33%)
  55. (0.00000) RY ( 9) C  1            s(  0.07%)p 5.08(  0.33%)d99.99( 99.60%)
  56. (0.00690) RY ( 1) C  2            s(  3.67%)p24.71( 90.69%)d 1.53(  5.63%)
                                         0.0000 -0.0125  0.1912  0.0158  0.8176
                                        -0.0036 -0.1028 -0.0170 -0.4768  0.0658
                                         0.1797 -0.0404  0.0781 -0.1095
  57. (0.00203) RY ( 2) C  2            s(  6.42%)p11.95( 76.68%)d 2.63( 16.90%)
                                         0.0000  0.0002  0.2533  0.0000  0.1003
                                        -0.0171 -0.7532  0.0020  0.4350  0.3130
                                        -0.1424  0.1767 -0.0389 -0.1343
  58. (0.00151) RY ( 3) C  2            s(  0.49%)p99.99( 90.42%)d18.57(  9.09%)
                                         0.0000 -0.0121  0.0689  0.0205 -0.5129
                                        -0.0058 -0.4121  0.0044 -0.6862  0.1401
                                         0.2324  0.0650 -0.1094  0.0329
  59. (0.00085) RY ( 4) C  2            s( 82.98%)p 0.09(  7.08%)d 0.12(  9.94%)
                                         0.0000 -0.0022  0.9109  0.0116 -0.1714
                                         0.0074  0.1862 -0.0137  0.0796 -0.1822
                                         0.1311 -0.0877  0.1916  0.0677
  60. (0.00022) RY ( 5) C  2            s(  0.15%)p48.68(  7.45%)d99.99( 92.40%)
                                         0.0000  0.0023  0.0390 -0.0143  0.1095
                                        -0.0073  0.1411 -0.0184  0.2049  0.2446
                                         0.5613  0.2423 -0.5173  0.4720
  61. (0.00014) RY ( 6) C  2            s(  2.59%)p 8.38( 21.75%)d29.16( 75.66%)
                                         0.0000 -0.0003  0.1611  0.0043 -0.0672
                                        -0.0113  0.4416  0.0038 -0.1335  0.6512
                                        -0.2949  0.3430 -0.0996 -0.3435
  62. (0.00003) RY ( 7) C  2            s(  3.18%)p 1.64(  5.21%)d28.83( 91.62%)
  63. (0.00001) RY ( 8) C  2            s(  0.05%)p10.36(  0.48%)d99.99( 99.47%)
  64. (0.00001) RY ( 9) C  2            s(  0.51%)p 0.76(  0.39%)d99.99( 99.10%)
  65. (0.00533) RY ( 1) C  3            s( 12.79%)p 6.59( 84.24%)d 0.23(  2.97%)
                                         0.0000  0.0148  0.3573  0.0020  0.2931
                                        -0.0082 -0.4950  0.0084  0.7151 -0.0430
                                         0.0129 -0.0807  0.0300  0.1423
  66. (0.00405) RY ( 2) C  3            s(  3.60%)p24.17( 87.08%)d 2.59(  9.32%)
                                         0.0000 -0.0025  0.1898 -0.0063 -0.8945
                                        -0.0022 -0.0368  0.0044  0.2633  0.0909
                                         0.0910 -0.1226  0.1775 -0.1735
  67. (0.00247) RY ( 3) C  3            s( 42.98%)p 1.15( 49.58%)d 0.17(  7.44%)
                                         0.0000 -0.0153  0.6554  0.0039 -0.0091
                                        -0.0066 -0.3674  0.0133 -0.6004 -0.1838
                                        -0.1048 -0.0760  0.1542 -0.0087
  68. (0.00132) RY ( 4) C  3            s( 38.81%)p 1.33( 51.54%)d 0.25(  9.64%)
                                         0.0000  0.0037  0.6230  0.0053  0.0974
                                         0.0087  0.6918 -0.0004  0.1653  0.0910
                                        -0.0092  0.2746 -0.1109  0.0183
  69. (0.00054) RY ( 5) C  3            s(  0.81%)p 5.91(  4.77%)d99.99( 94.42%)
                                         0.0000 -0.0011  0.0899  0.0020  0.0548
                                         0.0091 -0.1566  0.0186 -0.1406  0.3461
                                         0.8610  0.0623 -0.2756 -0.0571
  70. (0.00034) RY ( 6) C  3            s(  0.02%)p99.99(  8.07%)d99.99( 91.91%)
                                         0.0000 -0.0036  0.0126  0.0015 -0.0353
                                         0.0147 -0.2765 -0.0053 -0.0527  0.7211
                                        -0.4401  0.3979 -0.1704 -0.1347
  71. (0.00018) RY ( 7) C  3            s(  0.07%)p99.99( 12.01%)d99.99( 87.92%)
                                         0.0000  0.0046  0.0257 -0.0147  0.3144
                                         0.0008  0.1434  0.0006  0.0228  0.3327
                                         0.0342 -0.4016  0.5298 -0.5704
  72. (0.00016) RY ( 8) C  3            s(  0.23%)p11.88(  2.70%)d99.99( 97.08%)
                                         0.0000 -0.0018  0.0476  0.0063 -0.0353
                                        -0.0092  0.1350  0.0040 -0.0858  0.4351
                                        -0.0815 -0.5753 -0.0008  0.6662
  73. (0.00003) RY ( 9) C  3            s(  0.78%)p 0.10(  0.08%)d99.99( 99.14%)
  74. (0.00491) RY ( 1) C  4            s(  1.53%)p61.38( 93.88%)d 3.00(  4.59%)
                                         0.0000 -0.0046  0.1236  0.0202  0.8369
                                         0.0243  0.2009 -0.0092  0.4439 -0.0456
                                        -0.0306 -0.0898  0.1866  0.0055
  75. (0.00229) RY ( 2) C  4            s( 68.00%)p 0.12(  7.97%)d 0.35( 24.03%)
                                         0.0000  0.0022  0.8246 -0.0137  0.0401
                                         0.0127 -0.1565 -0.0204 -0.2298  0.2439
                                        -0.1895 -0.1242 -0.0538  0.3558
  76. (0.00113) RY ( 3) C  4            s(  0.21%)p99.99( 66.53%)d99.99( 33.27%)
                                         0.0000  0.0208  0.0403  0.0049  0.4213
                                        -0.0150 -0.5105  0.0017 -0.4764 -0.1287
                                         0.0541  0.2709 -0.1093 -0.4773
  77. (0.00088) RY ( 4) C  4            s(  6.05%)p 1.14(  6.89%)d14.39( 87.06%)
                                         0.0000 -0.0058  0.2459  0.0033 -0.1141
                                         0.0160 -0.2064 -0.0225  0.1116 -0.3878
                                         0.7649  0.0142  0.3349  0.1513
  78. (0.00058) RY ( 5) C  4            s(  0.03%)p99.99( 64.51%)d99.99( 35.46%)
                                         0.0000  0.0123 -0.0104  0.0108  0.1032
                                        -0.0160  0.5793  0.0387 -0.5449 -0.1074
                                        -0.0094  0.4040  0.3812  0.1856
  79. (0.00035) RY ( 6) C  4            s(  1.78%)p11.44( 20.40%)d43.64( 77.81%)
                                         0.0000  0.0029  0.1335  0.0086 -0.0307
                                         0.0005  0.3394 -0.0055 -0.2962 -0.0671
                                         0.1352 -0.7258  0.0576 -0.4746
  80. (0.00011) RY ( 7) C  4            s( 20.17%)p 1.22( 24.59%)d 2.74( 55.24%)
                                         0.0000 -0.0127  0.4489  0.0021 -0.2926
[...]
 11 H                 0.0       0.0      -0.2      -0.0       0.2      -0.1
 12 H                 0.1       0.4      -0.0       0.1       0.1       0.0
 13 H                -0.2      -0.1      -0.0      -0.0      -0.0       0.0
 14 H                -0.0      -0.1       0.0      -0.0      -0.0      -0.0
 15 H                -0.7       0.0      -0.0       0.3      -0.5      -0.1
 16 H                 2.6      -0.1       0.1      -0.2      -0.0      -0.0
 17 H                -0.3      -0.0      -0.0       0.0      -0.0      -0.0

                     72        73        74        75        76        77   
                   0.00000   0.00000   0.00000   0.00000   0.00000   0.00000
                   0.00003   0.00491   0.00229   0.00113   0.00088   0.00058
                  --------  --------  --------  --------  --------  --------
  0 C                -0.0      -0.2      -2.9      -1.4      -0.2      -0.3
  1 C                -1.9       1.1      -3.4      -1.4      -0.2       0.1
  2 C               104.2     -18.2     -72.2     -24.5      -3.4      -9.2
  3 C                -1.2     165.9     232.4     147.2     117.1     124.9
  4 N                -0.0     -17.6     -18.4      -0.8      -5.2      -6.7
  5 C                -0.9      -3.7     -10.1      -6.4      -0.1       0.1
  6 O                -0.0      -0.2      -0.2      -0.0      -0.0      -0.0
  9 H                -0.0       0.4       0.4      -0.6      -0.0       0.0
 10 H                -0.0      -0.0       0.3       0.1       0.0       0.0
 11 H                 0.0     -14.4     -15.2      -5.7      -5.7      -1.0
 12 H                -0.0     -12.1      -9.5      -4.8      -2.2      -5.6
 13 H                -0.0      -0.3      -1.5      -0.4       0.2      -1.7
 14 H                -0.0      -0.5      -0.2      -1.3      -0.0      -0.3
 15 H                -0.0       0.2       0.2      -0.1      -0.0      -0.0
 17 H                -0.0      -0.0       0.2      -0.0      -0.2      -0.1

                     78        79        80        81        82        83   
                   0.00000   0.00000   0.00000   0.00000   0.00000   0.00000
                   0.00035   0.00011   0.00002   0.00001   0.00231   0.00137
                  --------  --------  --------  --------  --------  --------
  0 C                -0.7       0.0       0.1      -0.1      -0.0      -0.0
  1 C                 1.2      -0.5       0.4       0.1       0.0      -0.2
  2 C               -13.1      -2.6      -1.8      -4.1      -0.7      -2.4
  3 C               123.2     148.0     109.7     116.5     -11.6      -5.8
  4 N                -3.6     -18.9       0.2      -1.1     119.5     119.5
  5 C                -1.2       0.9      -0.0       0.5       0.6       0.0
  6 O                -0.1      -0.1      -0.0      -0.0      -0.5      -0.0
 11 H                -2.3     -15.2      -2.3      -4.4      -0.2       0.1
 12 H                -2.8     -10.3      -6.3      -7.4      -0.1       0.1
 13 H                 0.1      -0.7       0.1       0.0      -1.1      -6.4
 14 H                -0.8      -0.4      -0.0       0.1      -1.7      -4.7
 15 H                 0.0      -0.1      -0.0      -0.0      -0.0      -0.0
 17 H                -0.1      -0.0      -0.0      -0.0      -4.3      -0.1

                     84        85        86        87        88        89   
                   0.00000   0.00000   0.00000   0.00000   0.00000   0.00000
                   0.00028   0.00013   0.00012   0.00005   0.00002   0.00001
                  --------  --------  --------  --------  --------  --------
  1 C                 0.2       0.0      -0.2       0.0      -0.0      -0.0
  2 C                 0.9      -0.2      -0.5      -0.3      -0.0      -0.0
  3 C               -42.1      -2.4      -1.5      -1.8      -2.4      -1.3
  4 N               142.7     118.6     110.9     110.3     106.0     106.8
  5 C                 0.3      -0.4      -0.2       0.1       0.0       0.0
  6 O                -0.1      -0.0       0.0      -0.1      -0.1      -0.0
 11 H                 0.2      -0.1      -0.0      -0.1       0.0       0.0
 12 H                 1.3      -0.1      -0.1      -0.1      -0.0      -0.1
 13 H                -1.5      -7.9      -3.6      -2.6      -2.4      -4.3
 14 H                -2.0      -7.2      -4.7      -5.4      -0.7      -1.1
 17 H                -0.0      -0.4      -0.1      -0.1      -0.4      -0.0

                     90        91        92        93        94        95   
                   0.00000   0.00000   0.00000   0.00000   0.00000   0.00000
                   0.00000   0.00524   0.00422   0.00185   0.00138   0.00080
                  --------  --------  --------  --------  --------  --------
  0 C                -0.0      -0.1       0.0       0.1      -0.0      -0.3
  1 C                -0.0       0.3      -2.0      -1.1       0.4      -0.7
  2 C                -0.1     -11.8     -13.8     -17.8      -1.7     -71.0
  3 C                -0.9      -1.9      -4.5      -2.5      -0.4     -11.6
  4 N               106.7       0.1       0.1       0.1       0.0       0.4
  5 C                 0.0     135.9     148.3     141.5     112.9     207.0
  6 O                -0.0      -8.0      -8.4      -5.7       0.7     -10.0
 10 H                -0.0      -0.0      -0.1      -0.2      -0.2      -1.3
 11 H                -0.1      -0.0      -0.1      -0.0      -0.0       0.1
 12 H                -0.0       0.0      -0.2       0.0      -0.0       0.1
 13 H                -1.4      -0.0       0.0      -0.0      -0.0      -0.0
 14 H                -4.3      -0.0      -0.0       0.0      -0.0      -0.0
 15 H                -0.0      -6.7      -3.5      -8.3      -7.2      -1.4
 16 H                -0.0      -5.2     -15.6      -3.7      -4.7      -8.7
 17 H                -0.0      -2.7      -0.4      -2.3       0.3      -2.6

                     96        97        98        99       100       101   
                   0.00000   0.00000   0.00000   0.00000   0.00000   0.00000
                   0.00044   0.00006   0.00002   0.00001   0.00175   0.00092
                  --------  --------  --------  --------  --------  --------
  1 C                 0.4       0.7       1.2       0.9      -0.1      -0.0
  2 C                -8.7      -6.9      -2.1      -3.7      -0.3      -0.2
  3 C                -0.0       0.6      -0.3       0.3      -0.0       0.0
  4 N                -0.1      -0.1      -0.0       0.0      -0.0      -0.1
  5 C               122.0     134.8     110.4     114.1      -6.0      -3.7
  6 O                -2.7      -4.2      -0.4      -0.4     107.4     107.3
 10 H                -0.1      -0.0      -0.0      -0.2      -0.0      -0.0
 15 H                -5.7     -10.6      -6.2      -6.1       0.0      -0.2
 16 H                -4.9     -14.1      -2.5      -4.8      -0.1       0.1
 17 H                -0.1      -0.1      -0.1      -0.0      -0.7      -3.2

                    102       103       104       105       106       107   
                   0.00000   0.00000   0.00000   0.00000   0.00000   0.00000
                   0.00020   0.00006   0.00002   0.00001   0.00000   0.00000
                  --------  --------  --------  --------  --------  --------
  2 C                 0.6      -0.3      -0.0      -0.0       0.1      -0.1
  3 C                -0.1      -0.3       0.0      -0.0       0.0      -0.0
  4 N                -0.0      -0.5       0.0      -0.0      -0.1      -0.0
  5 C               -22.0      -2.8      -1.8      -0.7      -0.8      -0.2
  6 O               123.5     114.7     103.1     103.5     106.0     102.4
 15 H                -0.3      -0.3      -0.0      -0.1      -0.0      -0.0
 16 H                -0.3       0.1      -0.0      -0.0      -0.0      -0.0
 17 H                -1.3     -10.5      -1.2      -2.6      -4.9      -2.0

                    108       109       110       111       112       113   
                   0.00000   0.00000   0.00000   0.00000   0.00000   0.00000
                   0.00000   0.00177   0.00017   0.00013   0.00002   0.00171
                  --------  --------  --------  --------  --------  --------
  0 C                -0.0     -33.6      -2.9      -3.6      -7.9     -33.3
  1 C                -0.0      -0.5      -0.3       0.2      -0.1      -0.9
  2 C                -0.1       0.3      -0.0      -0.0      -0.0       0.4
  5 C                -2.1      -0.0      -0.0      -0.0      -0.0       0.0
  6 O               104.1      -0.0      -0.0      -0.0      -0.0      -0.0
  7 H                -0.0     134.7     104.1     104.4     108.2      -0.1
  8 H                -0.0      -0.1      -0.4      -0.5      -0.1     134.6
  9 H                -0.0      -0.5      -0.3      -0.5      -0.1      -0.5
 10 H                -0.0      -0.4      -0.0      -0.0      -0.0      -0.3
 17 H                -1.8      -0.0      -0.0      -0.0      -0.0      -0.0

                    114       115       116       117       118       119   
                   0.00000   0.00000   0.00000   0.00000   0.00000   0.00000
                   0.00018   0.00014   0.00002   0.00163   0.00018   0.00016
                  --------  --------  --------  --------  --------  --------
  0 C                -2.9      -3.7      -7.8     -43.7      -3.2      -3.2
  1 C                -0.3       0.2      -0.1       1.7      -0.2      -0.1
  2 C                -0.1      -0.0      -0.0      -1.6      -0.0      -0.0
  3 C                -0.0      -0.0      -0.0       0.5      -0.0      -0.0
  7 H                -0.5      -0.4      -0.1      -0.5      -0.3      -0.3
  8 H               104.0     104.5     108.2      -0.7      -0.3      -0.4
  9 H                -0.3      -0.5      -0.1     156.5     104.0     104.1
 11 H                -0.0      -0.0      -0.0     -12.1      -0.0      -0.0

                    120       121       122       123       124       125   
                   0.00000   0.00000   0.00000   0.00000   0.00000   0.00000
                   0.00004   0.00272   0.00020   0.00008   0.00006   0.00246
                  --------  --------  --------  --------  --------  --------
  0 C                -7.8      -1.9      -0.1      -0.9      -0.1       0.4
  1 C                -0.2     -40.0      -3.0      -4.2      -8.6      -2.0
  2 C                -0.0       0.7      -0.1      -0.6       0.1       2.4
  3 C                -0.0       0.5      -0.0      -0.0      -0.0     -45.8
  4 N                -0.0      -0.0      -0.0      -0.0      -0.0       0.1
  5 C                 0.0      -2.1      -0.0      -0.0      -0.0       0.1
  7 H                -0.1      -0.4      -0.0      -0.0      -0.0      -0.0
  8 H                -0.1      -0.2      -0.0      -0.0      -0.0      -0.0
  9 H               108.7       0.0      -0.0      -0.0      -0.0     -12.1
 10 H                -0.0     147.2     103.4     105.9     108.8      -0.0
 11 H                -0.4      -0.0      -0.0      -0.0      -0.0     158.2
 12 H                -0.0      -0.0      -0.0      -0.0      -0.0      -0.6
 13 H                -0.0      -0.0      -0.0      -0.0      -0.0      -0.3
 14 H                -0.0      -0.0      -0.0      -0.0      -0.0      -0.3
 16 H                -0.0      -3.7      -0.0      -0.0      -0.1      -0.0

                    126       127       128       129       130       131   
                   0.00000   0.00000   0.00000   0.00000   0.00000   0.00000
                   0.00017   0.00011   0.00004   0.00300   0.00014   0.00009
                  --------  --------  --------  --------  --------  --------
  1 C                -0.0      -0.1       0.0       0.5      -0.0      -0.1
  2 C                -0.0      -0.5      -0.2       0.8       0.0      -0.3
  3 C                -3.5      -3.3      -6.9     -38.9      -4.1      -3.6
  4 N                -0.2      -0.3      -0.4       0.9      -0.3      -0.1
  5 C                -0.0      -0.0      -0.0      -0.1      -0.0      -0.1
 11 H               104.4     104.7     107.7      -0.6      -0.6      -0.4
 12 H                -0.5      -0.4      -0.0     140.2     105.4     104.9
 14 H                -0.1      -0.0      -0.0      -0.5      -0.1      -0.1
 15 H                -0.0      -0.0      -0.0      -2.1      -0.0      -0.1

                    132       133       134       135       136       137   
                   0.00000   0.00000   0.00000   0.00000   0.00000   0.00000
                   0.00002   0.00346   0.00064   0.00034   0.00003   0.00272
                  --------  --------  --------  --------  --------  --------
  1 C                -0.1       0.1       0.0      -0.0      -0.0       0.0
  2 C                -0.2      -0.5      -0.1      -0.0      -0.1      -0.2
  3 C                -6.3      -3.3      -0.2      -0.3       0.0      -3.0
  4 N                -0.6      -8.3      -3.6      -3.2      -5.5      -8.8
 11 H                 0.0      -0.3      -0.0      -0.0       0.0      -0.3
 12 H               107.2      -0.0      -0.0      -0.0      -0.0      -0.4
 13 H                -0.0     115.2     104.5     104.1     106.0      -1.6
 14 H                -0.0      -1.7      -0.3      -0.4      -0.3     114.5
 17 H                -0.0      -1.0      -0.1      -0.1      -0.0      -0.2

                    138       139       140       141       142       143   
                   0.00000   0.00000   0.00000   0.00000   0.00000   0.00000
                   0.00070   0.00035   0.00002   0.00423   0.00018   0.00014
                  --------  --------  --------  --------  --------  --------
  1 C                -0.0      -0.0      -0.0       0.3      -0.0      -0.0
  2 C                -0.0      -0.1       0.0      -0.3      -0.5      -0.1
  3 C                -0.2      -0.3      -0.3       0.2      -0.3       0.0
  4 N                -3.5      -3.2      -5.3      -0.0      -0.0      -0.0
  5 C                -0.0      -0.0      -0.0     -33.2      -2.6      -3.9
  6 O                -0.0      -0.0      -0.0       0.1      -0.4      -0.5
 12 H                -0.1      -0.1      -0.0      -2.1       0.0      -0.0
 13 H                -0.4      -0.5      -0.3      -0.0      -0.0      -0.0
 14 H               104.3     104.3     105.9      -0.0      -0.0      -0.0
 15 H                -0.0      -0.0      -0.0     135.7     104.3     105.2
 16 H                -0.0      -0.0      -0.0      -0.6      -0.3      -0.6
 17 H                -0.1      -0.0      -0.0      -0.1      -0.0      -0.2

                    144       145       146       147       148       149   
                   0.00000   0.00000   0.00000   0.00000   0.00000   0.00000
                   0.00002   0.00213   0.00017   0.00010   0.00003   0.00464
                  --------  --------  --------  --------  --------  --------
  0 C                 0.0      -0.1      -0.0      -0.0      -0.0      -0.0
  1 C                -0.1      -3.3      -0.0      -0.0       0.0       0.2
  2 C                -0.1       3.2      -0.2      -0.4      -0.2       0.3
  3 C                -0.1       0.2      -0.0      -0.0      -0.0       0.2
  4 N                -0.0       0.0      -0.0      -0.0      -0.0      -5.2
  5 C                -6.9     -42.6      -2.9      -5.0      -5.7      -8.8
  6 O                -0.6       0.3      -0.3      -0.1      -0.7      -6.3
 10 H                -0.0      -3.9      -0.0      -0.0      -0.0      -0.0
 13 H                -0.0      -0.0      -0.0      -0.0      -0.0      -1.0
 14 H                -0.0      -0.0      -0.0      -0.0      -0.0      -0.2
 15 H               107.9      -0.7      -0.4      -0.3      -0.1      -0.1
 16 H                 0.0     147.0     104.0     106.0     106.8      -0.1
 17 H                -0.0      -0.0      -0.1      -0.0      -0.0     121.0

                    150       151       152   
                   0.00000   0.00000   0.00000
                   0.00134   0.00072   0.00003
                  --------  --------  --------
  2 C                -0.1       0.2      -0.0
  3 C                 0.0       0.4      -0.0
  4 N                -0.3      -1.5      -0.1
  5 C                -0.0      -1.4      -0.4
  6 O                -3.2      -2.0      -5.9
 13 H                -0.1      -0.2      -0.1
 14 H                -0.0      -0.1      -0.0
 15 H                -0.0      -0.1      -0.0
 17 H               103.8     105.0     106.6

Storing NBOs: 5042.nbo
                                    *** NBOs were stored ***

                                *** returned from GENNBO program ***

-------
TIMINGS
-------

Total SCF time: 0 days 0 hours 0 min 6 sec 

Total time                  ....       6.288 sec
Sum of individual times     ....       6.834 sec  (108.7%)

Fock matrix formation       ....       3.989 sec  ( 63.4%)
  Coulomb formation         ....       2.081 sec  ( 52.2% of F)
  Split-RI-J                ....       2.073 sec  ( 52.0% of F)
  XC integration            ....       1.903 sec  ( 47.7% of F)
    Basis function eval.    ....       0.642 sec  ( 33.7% of XC)
    Density eval.           ....       0.354 sec  ( 18.6% of XC)
    XC-Functional eval.     ....       0.107 sec  (  5.6% of XC)
    XC-Potential eval.      ....       0.759 sec  ( 39.9% of XC)
Diagonalization             ....       0.030 sec  (  0.5%)
Density matrix formation    ....       0.003 sec  (  0.1%)
Population analysis         ....       1.580 sec  ( 25.1%)
Initial guess               ....       0.416 sec  (  6.6%)
Orbital Transformation      ....       0.000 sec  (  0.0%)
Orbital Orthonormalization  ....       0.000 sec  (  0.0%)
DIIS solution               ....       0.008 sec  (  0.1%)
SOSCF solution              ....       0.013 sec  (  0.2%)
Grid generation             ....       0.795 sec  ( 12.6%)
           ************************************************************
           *              Shut down parallel processing               *
           ************************************************************

-------------------------   --------------------
FINAL SINGLE POINT ENERGY      -326.439338957776
-------------------------   --------------------


                            ***************************************
                            *     ORCA property calculations      *
                            ***************************************

                                    ---------------------
                                    Active property flags
                                    ---------------------
   (+) Dipole Moment


------------------------------------------------------------------------------
                       ORCA ELECTRIC PROPERTIES CALCULATION
------------------------------------------------------------------------------

Dipole Moment Calculation                       ... on
Quadrupole Moment Calculation                   ... off
Polarizability Calculation                      ... off
GBWName                                         ... 5042.gbw
Electron density file                           ... 5042.scfp.tmp

-------------
DIPOLE MOMENT
-------------
                                X             Y             Z
Electronic contribution:      3.99636      -0.72510       1.41410
Nuclear contribution   :     -5.35182       0.98424      -1.12655
                        -----------------------------------------
Total Dipole Moment    :     -1.35546       0.25913       0.28756
                        -----------------------------------------
Magnitude (a.u.)       :      1.40965
Magnitude (Debye)      :      3.58305


Timings for individual modules:

Sum of individual times         ...        7.501 sec (=   0.125 min)
GTO integral calculation        ...        0.465 sec (=   0.008 min)   6.2 %
SCF iterations                  ...        7.036 sec (=   0.117 min)  93.8 %
                             ****ORCA TERMINATED NORMALLY****
TOTAL RUN TIME: 0 days 0 hours 0 minutes 7 seconds 892 msec
