
                                 *****************
                                 * O   R   C   A *
                                 *****************

           --- An Ab Initio, DFT and Semiempirical electronic structure package ---

                  #######################################################
                  #                        -***-                        #
                  #  Department of molecular theory and spectroscopy    #
                  #              Directorship: Frank Neese              #
                  # Max Planck Institute for Chemical Energy Conversion #
                  #                  D-45470 Muelheim/Ruhr              #
                  #                       Germany                       #
                  #                                                     #
                  #                  All rights reserved                #
                  #                        -***-                        #
                  #######################################################


                         Program Version 3.0.3 - RELEASE   -


 With contributions from (in alphabetic order):
   Ute Becker             : Parallelization
   Dmytro Bykov           : SCF Hessian
   Dmitry Ganyushin       : Spin-Orbit,Spin-Spin,Magnetic field MRCI
   Andreas Hansen         : Spin unrestricted coupled pair/coupled cluster methods
   Dimitrios Liakos       : Extrapolation schemes; parallel MDCI
   Robert Izsak           : Overlap fitted RIJCOSX, COSX-SCS-MP3
   Christian Kollmar      : KDIIS, OOCD, Brueckner-CCSD(T), CCSD density
   Simone Kossmann        : Meta GGA functionals, TD-DFT gradient, OOMP2, MP2 Hessian
   Taras Petrenko         : DFT Hessian,TD-DFT gradient, ASA and ECA modules, normal mode analysis, Resonance Raman, ABS, FL, XAS/XES, NRVS
   Christoph Reimann      : Effective Core Potentials
   Michael Roemelt        : Restricted open shell CIS
   Christoph Riplinger    : Improved optimizer, TS searches, QM/MM, DLPNO-CCSD
   Barbara Sandhoefer     : DKH picture change effects
   Igor Schapiro          : Molecular dynamics
   Kantharuban Sivalingam : CASSCF convergence, NEVPT2
   Boris Wezisla          : Elementary symmetry handling
   Frank Wennmohs         : Technical directorship


 We gratefully acknowledge several colleagues who have allowed us to
 interface, adapt or use parts of their codes:
   Stefan Grimme, W. Hujo, H. Kruse, T. Risthaus : VdW corrections, initial TS optimization,
                                                   DFT functionals, gCP
   Ed Valeev                                     : LibInt (2-el integral package), F12 methods
   Garnet Chan, S. Sharma, R. Olivares           : DMRG
   Ulf Ekstrom                                   : XCFun DFT Library
   Mihaly Kallay                                 : mrcc  (arbitrary order and MRCC methods)
   Andreas Klamt, Michael Diedenhofen            : otool_cosmo (COSMO solvation model)
   Frank Weinhold                                : gennbo (NPA and NBO analysis)
   Christopher J. Cramer and Donald G. Truhlar   : smd solvation model


 Your calculation uses the libint2 library for the computation of 2-el integrals
 For citations please refer to: http://libint.valeyev.net

 This ORCA versions uses:
   CBLAS   interface :  Fast vector & matrix operations
   LAPACKE interface :  Fast linear algebra routines
   SCALAPACK package :  Parallel linear algebra routines


Your calculation utilizes the basis: Ahlrichs-VDZ
Cite in your paper:
H - Kr: A. Schaefer, H. Horn and R. Ahlrichs, J. Chem. Phys. 97, 2571 (1992).

Your calculation utilizes the basis: Ahlrichs SVPalls1+f
Cite in your paper:
Rb - Xe: A. Schaefer, C. Huber and R. Ahlrichs, J. Chem. Phys. 100, 5829 (1994).

================================================================================
                                        WARNINGS
                       Please study these warnings very carefully!
================================================================================
Now building the actual basis set


INFO   : the flag for use of LIBINT has been found!

================================================================================
                                       INPUT FILE
================================================================================
NAME = 5289.inp
|  1> ! RI PBE def2-SVP def2-SVP/J NBO PAL2
|  2> % maxcore 2000
|  3> % output
|  4>     # printlevel mini
|  5>     print[ P_Basis ] 0
|  6>     print[ P_SCFInfo ] 1
|  7>     print[ P_SCFIterInfo ] 1
|  8>     print[ P_OrbEn ] 0
|  9>     print[ P_Cartesian ] 0
| 10> end
| 11> *xyz 0 1
| 12>  C        1.2500360000     0.1203660000    -0.7774510000 
| 13>  C        2.2452290000     0.8347700000     0.1345570000 
| 14>  C        2.6766180000     2.1124450000    -0.5549180000 
| 15>  O        3.6821950000     2.2296200000    -1.1984290000 
| 16>  N        1.6268770000     1.1762490000     1.3890700000 
| 17>  C        2.1620350000     0.7318040000     2.4475260000 
| 18>  N        1.7097600000     1.0419230000     3.6905580000 
| 19>  H        1.7079650000    -0.1186250000    -1.7394240000 
| 20>  H        0.3714520000     0.7472440000    -0.9468900000 
| 21>  H        0.9162280000    -0.8052060000    -0.3044020000 
| 22>  H        3.1458230000     0.2126240000     0.2519920000 
| 23>  H        1.9631130000     2.9555110000    -0.4300040000 
| 24>  H        3.0521590000     0.0882960000     2.4466270000 
| 25>  H        0.8181980000     1.5047730000     3.7525650000 
| 26>  H        1.9800110000     0.4632960000     4.4640330000 
| 27> *
| 28> 
| 29>                          ****END OF INPUT****
================================================================================

                       ****************************
                       * Single Point Calculation *
                       ****************************

--------------------------------
INTERNAL COORDINATES (ANGSTROEM)
--------------------------------
 C      0   0   0   0.000000     0.000     0.000
 C      1   0   0   1.527266     0.000     0.000
 C      2   1   0   1.514571   107.960     0.000
 O      3   2   1   1.199592   124.428   262.881
 N      2   1   3   1.439712   110.574   118.670
 C      5   2   1   1.266592   117.612   122.630
 N      6   5   2   1.358622   122.944   176.577
 H      1   2   3   1.091883   110.806    59.941
 H      1   2   3   1.092518   110.379   299.048
 H      1   2   3   1.091736   109.698   180.250
 H      2   1   3   1.100875   109.416   243.893
 H      3   2   1   1.111509   113.945    81.964
 H      6   5   2   1.098373   123.183   358.640
 H      7   6   5   1.006458   117.144    11.306
 H      7   6   5   1.003050   118.957   161.756

---------------------------
INTERNAL COORDINATES (A.U.)
---------------------------
 C      0   0   0   0.000000     0.000     0.000
 C      1   0   0   2.886114     0.000     0.000
 C      2   1   0   2.862125   107.960     0.000
 O      3   2   1   2.266901   124.428   262.881
 N      2   1   3   2.720661   110.574   118.670
 C      5   2   1   2.393511   117.612   122.630
 N      6   5   2   2.567424   122.944   176.577
 H      1   2   3   2.063359   110.806    59.941
 H      1   2   3   2.064560   110.379   299.048
 H      1   2   3   2.063081   109.698   180.250
 H      2   1   3   2.080353   109.416   243.893
 H      3   2   1   2.100448   113.945    81.964
 H      6   5   2   2.075625   123.183   358.640
 H      7   6   5   1.901930   117.144    11.306
 H      7   6   5   1.895489   118.957   161.756



           ************************************************************
           *        Program running with 2 parallel MPI-processes     *
           *              working on a common directory               *
           ************************************************************
------------------------------------------------------------------------------
                           ORCA GTO INTEGRAL CALCULATION
                           -- RI-GTO INTEGRALS CHOSEN --
------------------------------------------------------------------------------

                         BASIS SET STATISTICS AND STARTUP INFO

Gaussian basis set:
 # of primitive gaussian shells          ...  124
 # of primitive gaussian functions       ...  224
 # of contracted shells                  ...   66
 # of contracted basis functions         ...  138
 Highest angular momentum                ...    2
 Maximum contraction depth               ...    5
Auxiliary gaussian basis set:
 # of primitive gaussian shells          ...  232
 # of primitive gaussian functions       ...  618
 # of contracted shells                  ...  145
 # of contracted aux-basis functions     ...  431
 Highest angular momentum                ...    4
 Maximum contraction depth               ...    7
Ratio of auxiliary to basis functions    ...  3.12
Integral package used                  ... LIBINT
 One Electron integrals                  ... done
 Ordering auxiliary basis shells         ... done
 Integral threshhold             Thresh  ...  1.000e-10
 Primitive cut-off               TCut    ...  1.000e-11
 Pre-screening matrix                    ... done
 Shell pair data                         ... 
 Ordering of the shell pairs             ... done (   0.000 sec) 2081 of 2211 pairs
 Determination of significant pairs      ... done (   0.000 sec)
 Creation of shell pair data             ... done (   0.000 sec)
 Storage of shell pair data              ... done (   0.000 sec)
 Shell pair data done in (   0.001 sec)
 Computing two index integrals           ... done
 Cholesky decomposition of the V-matrix  ... done


Timings:
 Total evaluation time                   ...   0.154 sec (  0.003 min)
 One electron matrix time                ...   0.016 sec (  0.000 min) = 10.7%
 Schwartz matrix evaluation time         ...   0.073 sec (  0.001 min) = 47.4%
 Two index repulsion integral time       ...   0.004 sec (  0.000 min) =  2.4%
 Cholesky decomposition of V             ...   0.003 sec (  0.000 min) =  2.1%
 Three index repulsion integral time     ...   0.000 sec (  0.000 min) =  0.0%

           ************************************************************
           *              Shut down parallel processing               *
           ************************************************************


           ************************************************************
           *        Program running with 2 parallel MPI-processes     *
           *              working on a common directory               *
           ************************************************************
-------------------------------------------------------------------------------
                                 ORCA SCF
-------------------------------------------------------------------------------

------------
SCF SETTINGS
------------
Hamiltonian:
 Density Functional     Method          .... DFT(GTOs)
 Exchange Functional    Exchange        .... PBE
   PBE kappa parameter  XKappa          ....  0.804000
 Correlation Functional Correlation     .... PBE
 LDA part of GGA corr.  LDAOpt          .... PW91-LDA
 Gradients option       PostSCFGGA      .... off
   NL short-range parameter             ....  6.400000
 RI-approximation to the Coulomb term is turned on
   Number of auxiliary basis functions  .... 431


General Settings:
 Integral files         IntName         .... 5289
 Hartree-Fock type      HFTyp           .... RHF
 Total Charge           Charge          ....    0
 Multiplicity           Mult            ....    1
 Number of Electrons    NEL             ....   54
 Basis Dimension        Dim             ....  138
 Nuclear Repulsion      ENuc            ....    291.2084244609 Eh

Convergence Acceleration:
 DIIS                   CNVDIIS         .... on
   Start iteration      DIISMaxIt       ....    12
   Startup error        DIISStart       ....  0.200000
   # of expansion vecs  DIISMaxEq       ....     5
   Bias factor          DIISBfac        ....   1.050
   Max. coefficient     DIISMaxC        ....  10.000
 Newton-Raphson         CNVNR           .... off
 SOSCF                  CNVSOSCF        .... on
   Start iteration      SOSCFMaxIt      ....   150
   Startup grad/error   SOSCFStart      ....  0.003300
 Level Shifting         CNVShift        .... on
   Level shift para.    LevelShift      ....    0.2500
   Turn off err/grad.   ShiftErr        ....    0.0010
 Zerner damping         CNVZerner       .... off
 Static damping         CNVDamp         .... on
   Fraction old density DampFac         ....    0.7000
   Max. Damping (<1)    DampMax         ....    0.9800
   Min. Damping (>=0)   DampMin         ....    0.0000
   Turn off err/grad.   DampErr         ....    0.1000
 Fernandez-Rico         CNVRico         .... off

SCF Procedure:
 Maximum # iterations   MaxIter         ....   125
 SCF integral mode      SCFMode         .... Direct
   Integral package                     .... LIBINT
 Reset frequeny         DirectResetFreq ....    20
 Integral Threshold     Thresh          ....  1.000e-10 Eh
 Primitive CutOff       TCut            ....  1.000e-11 Eh

Convergence Tolerance:
 Convergence Check Mode ConvCheckMode   .... Total+1el-Energy
 Energy Change          TolE            ....  1.000e-06 Eh
 1-El. energy change                    ....  1.000e-03 Eh
 Orbital Gradient       TolG            ....  5.000e-05
 Orbital Rotation angle TolX            ....  5.000e-05
 DIIS Error             TolErr          ....  1.000e-06


Diagonalization of the overlap matrix:
Smallest eigenvalue                        ... 1.825e-03
Time for diagonalization                   ...    0.012 sec
Threshold for overlap eigenvalues          ... 1.000e-08
Number of eigenvalues below threshold      ... 0
Time for construction of square roots      ...    0.002 sec
Total time needed                          ...    0.014 sec

-------------------
DFT GRID GENERATION
-------------------

General Integration Accuracy     IntAcc      ...  4.340
Radial Grid Type                 RadialGrid  ... Gauss-Chebyshev
Angular Grid (max. acc.)         AngularGrid ... Lebedev-110
Angular grid pruning method      GridPruning ... 3 (G Style)
Weight generation scheme         WeightScheme... Becke
Basis function cutoff            BFCut       ...    1.0000e-10
Integration weight cutoff        WCut        ...    1.0000e-14
Grids for H and He will be reduced by one unit

# of grid points (after initial pruning)     ...  18096 (   0.0 sec)
# of grid points (after weights+screening)   ...  16981 (   0.0 sec)
nearest neighbour list constructed           ...    0.0 sec
Grid point re-assignment to atoms done       ...    0.0 sec
Grid point division into batches done        ...    0.0 sec
Reduced shell lists constructed in    0.1 sec

Total number of grid points                  ...    16981
Total number of batches                      ...      274
Average number of points per batch           ...       61
Average number of grid points per atom       ...     1132
Average number of shells per batch           ...    49.13 (74.44%)
Average number of basis functions per batch  ...   100.77 (73.02%)
Average number of large shells per batch     ...    39.34 (80.07%)
Average number of large basis fcns per batch ...    79.96 (79.35%)
Maximum spatial batch extension              ...  20.75, 19.29, 18.84 au
Average spatial batch extension              ...   1.56,  1.56,  1.47 au

Time for grid setup =    0.133 sec

------------------------------
INITIAL GUESS: MODEL POTENTIAL
------------------------------
Loading Hartree-Fock densities                     ... done
Calculating cut-offs                               ... done
Setting up the integral package                    ... done
Initializing the effective Hamiltonian             ... done
Starting the Coulomb interaction                   ... done (   0.0 sec)
Reading the grid                                   ... done
Mapping shells                                     ... done
Starting the XC term evaluation                    ... done (   0.1 sec)
  promolecular density results
     # of electrons  =     53.991119052
     EX              =    -44.030131297
     EC              =     -1.779270366
     EX+EC           =    -45.809401662
Transforming the Hamiltonian                       ... done (   0.0 sec)
Diagonalizing the Hamiltonian                      ... done (   0.0 sec)
Back transforming the eigenvectors                 ... done (   0.0 sec)
Now organizing SCF variables                       ... done
                      ------------------
                      INITIAL GUESS DONE (   0.3 sec)
                      ------------------
--------------
SCF ITERATIONS
--------------
ITER       Energy         Delta-E        Max-DP      RMS-DP      [F,P]     Damp
               ***  Starting incremental Fock matrix formation  ***
  0   -341.0534901514   0.000000000000 0.16449452  0.00384402  0.2171433 0.7000
  1   -341.1713874995  -0.117897348043 0.10326204  0.00248202  0.0879813 0.7000
                               ***Turning on DIIS***
  2   -341.2055992308  -0.034211731288 0.07126761  0.00317695  0.0245932 0.0000
  3   -341.2672682543  -0.061669023549 0.07688759  0.00181314  0.0528007 0.0000
  4   -341.2807575692  -0.013489314898 0.01666562  0.00054781  0.0236764 0.0000
                      *** Initiating the SOSCF procedure ***
                           *** Shutting down DIIS ***
                      *** Re-Reading the Fockian *** 
                      *** Removing any level shift *** 
ITER      Energy       Delta-E        Grad      Rot      Max-DP    RMS-DP
  5   -341.28269816  -0.0019405873  0.000808  0.000808  0.004547  0.000176
               *** Restarting incremental Fock matrix formation ***
  6   -341.28275705  -0.0000588963  0.000963  0.003751  0.008867  0.000210
  7   -341.28265227   0.0001047832  0.003190  0.003069  0.007054  0.000140
  8   -341.28277524  -0.0001229689  0.000213  0.000912  0.000885  0.000029
  9   -341.28277275   0.0000024846  0.000520  0.000703  0.000670  0.000021
 10   -341.28277589  -0.0000031334  0.000061  0.000190  0.000376  0.000012
 11   -341.28277555   0.0000003416  0.000128  0.000142  0.000267  0.000007
                  ***Gradient check signals convergence***
              ***Rediagonalizing the Fockian in SOSCF/NRSCF***

               *****************************************************
               *                     SUCCESS                       *
               *           SCF CONVERGED AFTER  12 CYCLES          *
               *****************************************************

Setting up the final grid:

General Integration Accuracy     IntAcc      ...  4.670
Radial Grid Type                 RadialGrid  ... Gauss-Chebyshev
Angular Grid (max. acc.)         AngularGrid ... Lebedev-302
Angular grid pruning method      GridPruning ... 3 (G Style)
Weight generation scheme         WeightScheme... Becke
Basis function cutoff            BFCut       ...    1.0000e-10
Integration weight cutoff        WCut        ...    1.0000e-14
Grids for H and He will be reduced by one unit

# of grid points (after initial pruning)     ...  70636 (   0.0 sec)
# of grid points (after weights+screening)   ...  65450 (   0.1 sec)
nearest neighbour list constructed           ...    0.0 sec
Grid point re-assignment to atoms done       ...    0.0 sec
Grid point division into batches done        ...    0.2 sec
Reduced shell lists constructed in    0.4 sec

Total number of grid points                  ...    65450
Total number of batches                      ...     1028
Average number of points per batch           ...       63
Average number of grid points per atom       ...     4363
Average number of shells per batch           ...    45.97 (69.64%)
Average number of basis functions per batch  ...    93.80 (67.97%)
Average number of large shells per batch     ...    36.22 (78.80%)
Average number of large basis fcns per batch ...    72.98 (77.80%)
Maximum spatial batch extension              ...  19.40, 16.57, 16.65 au
Average spatial batch extension              ...   1.01,  1.02,  0.97 au

Final grid set up in    0.5 sec
Final integration                            ... done (   0.4 sec)
Change in XC energy                          ...    -0.000230489
Integrated number of electrons               ...    53.999961763
Previous integrated no of electrons          ...    53.995911549

----------------
TOTAL SCF ENERGY
----------------

Total Energy       :         -341.28300650 Eh           -9286.78274 eV

Components:
Nuclear Repulsion  :          291.20842446 Eh            7924.18409 eV
Electronic Energy  :         -632.49143096 Eh          -17210.96683 eV

One Electron Energy:        -1040.01479499 Eh          -28300.24133 eV
Two Electron Energy:          407.52336403 Eh           11089.27450 eV

Virial components:
Potential Energy   :         -679.61887355 Eh          -18493.36973 eV
Kinetic Energy     :          338.33586705 Eh            9206.58700 eV
Virial Ratio       :            2.00871069


DFT components:
N(Alpha)           :       26.999980881593 electrons
N(Beta)            :       26.999980881593 electrons
N(Total)           :       53.999961763186 electrons
E(X)               :      -44.856756037223 Eh       
E(C)               :       -1.798606750457 Eh       
E(XC)              :      -46.655362787680 Eh       

---------------
SCF CONVERGENCE
---------------

  Last Energy change         ...   -4.6810e-07  Tolerance :   1.0000e-06
  Last MAX-Density change    ...    6.0101e-05  Tolerance :   1.0000e-05
  Last RMS-Density change    ...    1.7380e-06  Tolerance :   1.0000e-06
  Last Orbital Gradient      ...    1.1111e-05  Tolerance :   5.0000e-05
  Last Orbital Rotation      ...    1.7939e-05  Tolerance :   5.0000e-05

             **** THE GBW FILE WAS UPDATED (5289.gbw) ****
             **** DENSITY FILE WAS UPDATED (5289.scfp.tmp) ****
             **** ENERGY FILE WAS UPDATED (5289.en.tmp) ****

                    ********************************
                    * MULLIKEN POPULATION ANALYSIS *
                    ********************************

-----------------------
MULLIKEN ATOMIC CHARGES
-----------------------
   0 C :    0.042267
   1 C :   -0.008136
   2 C :    0.121666
   3 O :   -0.161755
   4 N :   -0.202366
   5 C :   -0.000665
   6 N :   -0.063838
   7 H :    0.027170
   8 H :    0.023618
   9 H :    0.020336
  10 H :   -0.007804
  11 H :   -0.012439
  12 H :   -0.011974
  13 H :    0.115090
  14 H :    0.118829
Sum of atomic charges:   -0.0000000

--------------------------------
MULLIKEN REDUCED ORBITAL CHARGES
--------------------------------
  0 C s       :     2.981040  s :     2.981040
      pz      :     0.970944  p :     2.952162
      px      :     0.991368
      py      :     0.989850
      dz2     :     0.005003  d :     0.024531
      dxz     :     0.005234
      dyz     :     0.003973
      dx2y2   :     0.003654
      dxy     :     0.006668
  1 C s       :     3.058999  s :     3.058999
      pz      :     0.890117  p :     2.893398
      px      :     0.993522
      py      :     1.009759
      dz2     :     0.013841  d :     0.055738
      dxz     :     0.012220
      dyz     :     0.012919
      dx2y2   :     0.006976
      dxy     :     0.009783
  2 C s       :     3.184356  s :     3.184356
      pz      :     0.790758  p :     2.610902
      px      :     0.861497
      py      :     0.958647
      dz2     :     0.012176  d :     0.083076
      dxz     :     0.013536
      dyz     :     0.013128
      dx2y2   :     0.015016
      dxy     :     0.029220
  3 O s       :     3.752610  s :     3.752610
      pz      :     1.312235  p :     4.390943
      px      :     1.345081
      py      :     1.733627
      dz2     :     0.003609  d :     0.018202
      dxz     :     0.005753
      dyz     :     0.001341
      dx2y2   :     0.004102
      dxy     :     0.003396
  4 N s       :     3.563973  s :     3.563973
      pz      :     0.951778  p :     3.612350
      px      :     1.361028
      py      :     1.299544
      dz2     :     0.003886  d :     0.026043
      dxz     :     0.008529
      dyz     :     0.006266
      dx2y2   :     0.003873
      dxy     :     0.003489
  5 C s       :     3.108684  s :     3.108684
      pz      :     0.884873  p :     2.815155
      px      :     0.969021
      py      :     0.961261
      dz2     :     0.025342  d :     0.076826
      dxz     :     0.020922
      dyz     :     0.020616
      dx2y2   :     0.003466
      dxy     :     0.006480
  6 N s       :     3.297879  s :     3.297879
      pz      :     1.065138  p :     3.751207
      px      :     1.266112
      py      :     1.419957
      dz2     :     0.003988  d :     0.014752
      dxz     :     0.002458
      dyz     :     0.004966
      dx2y2   :     0.001943
      dxy     :     0.001396
  7 H s       :     0.949194  s :     0.949194
      pz      :     0.011655  p :     0.023636
      px      :     0.006306
      py      :     0.005675
  8 H s       :     0.952556  s :     0.952556
      pz      :     0.005369  p :     0.023825
      px      :     0.010558
      py      :     0.007898
  9 H s       :     0.955810  s :     0.955810
      pz      :     0.006617  p :     0.023853
      px      :     0.006034
      py      :     0.011203
 10 H s       :     0.987623  s :     0.987623
      pz      :     0.002872  p :     0.020180
      px      :     0.010539
      py      :     0.006770
 11 H s       :     0.993460  s :     0.993460
      pz      :     0.002511  p :     0.018979
      px      :     0.006800
      py      :     0.009668
 12 H s       :     0.991850  s :     0.991850
      pz      :     0.001790  p :     0.020124
      px      :     0.010897
      py      :     0.007436
 13 H s       :     0.840063  s :     0.840063
      pz      :     0.008081  p :     0.044847
      px      :     0.021626
      py      :     0.015140
 14 H s       :     0.834868  s :     0.834868
      pz      :     0.017986  p :     0.046303
      px      :     0.012122
      py      :     0.016195


                     *******************************
                     * LOEWDIN POPULATION ANALYSIS *
                     *******************************

----------------------
LOEWDIN ATOMIC CHARGES
----------------------
   0 C :   -0.052120
   1 C :   -0.039291
   2 C :    0.094122
   3 O :   -0.109277
   4 N :   -0.155982
   5 C :    0.027055
   6 N :    0.008582
   7 H :    0.031011
   8 H :    0.029228
   9 H :    0.028979
  10 H :    0.010872
  11 H :   -0.013310
  12 H :   -0.006540
  13 H :    0.073389
  14 H :    0.073283

-------------------------------
LOEWDIN REDUCED ORBITAL CHARGES
-------------------------------
  0 C s       :     2.845409  s :     2.845409
      pz      :     1.046980  p :     3.138470
      px      :     1.043468
      py      :     1.048022
      dz2     :     0.013252  d :     0.068241
      dxz     :     0.015340
      dyz     :     0.011671
      dx2y2   :     0.008884
      dxy     :     0.019094
  1 C s       :     2.856162  s :     2.856162
      pz      :     0.957741  p :     3.047390
      px      :     1.035223
      py      :     1.054427
      dz2     :     0.029616  d :     0.135739
      dxz     :     0.031032
      dyz     :     0.032044
      dx2y2   :     0.015752
      dxy     :     0.027294
  2 C s       :     2.911532  s :     2.911532
      pz      :     0.831169  p :     2.793734
      px      :     0.949706
      py      :     1.012859
      dz2     :     0.023615  d :     0.200612
      dxz     :     0.033678
      dyz     :     0.033711
      dx2y2   :     0.037396
      dxy     :     0.072211
  3 O s       :     3.548061  s :     3.548061
      pz      :     1.347001  p :     4.529528
      px      :     1.449026
      py      :     1.733501
      dz2     :     0.004456  d :     0.031688
      dxz     :     0.011591
      dyz     :     0.002295
      dx2y2   :     0.007756
      dxy     :     0.005591
  4 N s       :     3.227499  s :     3.227499
      pz      :     1.110912  p :     3.872559
      px      :     1.427941
      py      :     1.333706
      dz2     :     0.012083  d :     0.055924
      dxz     :     0.019990
      dyz     :     0.014206
      dx2y2   :     0.004650
      dxy     :     0.004995
  5 C s       :     2.852047  s :     2.852047
      pz      :     0.971772  p :     2.934763
      px      :     0.993945
      py      :     0.969046
      dz2     :     0.064831  d :     0.186135
      dxz     :     0.051335
      dyz     :     0.047490
      dx2y2   :     0.006317
      dxy     :     0.016162
  6 N s       :     3.041689  s :     3.041689
      pz      :     1.164017  p :     3.907479
      px      :     1.313750
      py      :     1.429711
      dz2     :     0.012804  d :     0.042250
      dxz     :     0.007843
      dyz     :     0.012994
      dx2y2   :     0.004480
      dxy     :     0.004129
  7 H s       :     0.901593  s :     0.901593
      pz      :     0.035250  p :     0.067396
      px      :     0.017827
      py      :     0.014319
  8 H s       :     0.903179  s :     0.903179
      pz      :     0.013489  p :     0.067593
      px      :     0.031953
      py      :     0.022151
  9 H s       :     0.903629  s :     0.903629
      pz      :     0.018004  p :     0.067393
      px      :     0.016310
      py      :     0.033079
 10 H s       :     0.920067  s :     0.920067
      pz      :     0.011001  p :     0.069061
      px      :     0.034013
      py      :     0.024048
 11 H s       :     0.945595  s :     0.945595
      pz      :     0.008938  p :     0.067715
      px      :     0.025207
      py      :     0.033570
 12 H s       :     0.937994  s :     0.937994
      pz      :     0.009484  p :     0.068546
      px      :     0.035252
      py      :     0.023809
 13 H s       :     0.802596  s :     0.802596
      pz      :     0.017390  p :     0.124015
      px      :     0.063740
      py      :     0.042885
 14 H s       :     0.801458  s :     0.801458
      pz      :     0.047593  p :     0.125259
      px      :     0.029569
      py      :     0.048097


                      *****************************
                      * MAYER POPULATION ANALYSIS *
                      *****************************

  NA   - Mulliken gross atomic population
  ZA   - Total nuclear charge
  QA   - Mulliken gross atomic charge
  VA   - Mayer's total valence
  BVA  - Mayer's bonded valence
  FA   - Mayer's free valence

  ATOM       NA         ZA         QA         VA         BVA        FA
  0 C      5.9577     6.0000     0.0423     3.9369     3.9369     0.0000
  1 C      6.0081     6.0000    -0.0081     3.9252     3.9252     0.0000
  2 C      5.8783     6.0000     0.1217     4.0794     4.0794    -0.0000
  3 O      8.1618     8.0000    -0.1618     2.2973     2.2973    -0.0000
  4 N      7.2024     7.0000    -0.2024     3.0141     3.0141    -0.0000
  5 C      6.0007     6.0000    -0.0007     4.1388     4.1388    -0.0000
  6 N      7.0638     7.0000    -0.0638     3.2659     3.2659    -0.0000
  7 H      0.9728     1.0000     0.0272     0.9932     0.9932    -0.0000
  8 H      0.9764     1.0000     0.0236     1.0051     1.0051     0.0000
  9 H      0.9797     1.0000     0.0203     0.9978     0.9978     0.0000
 10 H      1.0078     1.0000    -0.0078     1.0094     1.0094     0.0000
 11 H      1.0124     1.0000    -0.0124     0.9909     0.9909    -0.0000
 12 H      1.0120     1.0000    -0.0120     1.0050     1.0050     0.0000
 13 H      0.8849     1.0000     0.1151     1.0242     1.0242    -0.0000
 14 H      0.8812     1.0000     0.1188     1.0006     1.0006     0.0000

  Mayer bond orders larger than 0.1
B(  0-C ,  1-C ) :   1.0598 B(  0-C ,  7-H ) :   0.9537 B(  0-C ,  8-H ) :   0.9544 
B(  0-C ,  9-H ) :   0.9521 B(  1-C ,  2-C ) :   0.9180 B(  1-C ,  4-N ) :   0.9857 
B(  1-C , 10-H ) :   0.8794 B(  2-C ,  3-O ) :   2.1878 B(  2-C , 11-H ) :   0.9178 
B(  4-N ,  5-C ) :   1.8033 B(  5-C ,  6-N ) :   1.2562 B(  5-C , 12-H ) :   0.9255 
B(  6-N , 13-H ) :   0.9494 B(  6-N , 14-H ) :   0.9540 


 *********************************** NBO 6.0 ***********************************
             N A T U R A L   A T O M I C   O R B I T A L   A N D
          N A T U R A L   B O N D   O R B I T A L   A N A L Y S I S
 ***************************** Kiya KiyaLu (100703) ****************************
  (c) Copyright 1996-2015 Board of Regents of the University of Wisconsin System
      on behalf of the Theoretical Chemistry Institute.  All rights reserved.

          Cite this program as:

          NBO 6.0.  E. D. Glendening, J. K. Badenhoop, A. E. Reed,
          J. E. Carpenter, J. A. Bohmann, C. M. Morales, C. R. Landis,
          and F. Weinhold (Theoretical Chemistry Institute, University
          of Wisconsin, Madison, WI, 2013); http://nbo6.chem.wisc.edu/

       /NPA    / : Natural Population Analysis
       /NBO    / : Natural Bond Orbital Analysis
       /AONBO  / : Write the AO to NBO transformation to lfn77
       /FILE   / : Set to 5289

 Filename set to 5289

 Job title:  *** NBO job generated by orca_scf

 Warning: MOs are non-orthogonal; program will continue

 Warning: -1225.23908 electrons reside outside the linearly independent MO space


 NATURAL POPULATIONS:  Natural atomic orbital occupancies

  NAO Atom No lang   Type(AO)    Occupancy      Energy
 -------------------------------------------------------
   1    C  1  s      Cor( 1s)     1.99917      -9.77400
   2    C  1  s      Val( 2s)     1.09439      -0.21800
   3    C  1  s      Ryd( 3s)     0.00068       0.81825
   4    C  1  px     Val( 2p)     1.16777      -0.06850
   5    C  1  px     Ryd( 3p)     0.00148       0.54062
   6    C  1  py     Val( 2p)     1.19692      -0.07150
   7    C  1  py     Ryd( 3p)     0.00239       0.58235
   8    C  1  pz     Val( 2p)     1.18049      -0.06780
   9    C  1  pz     Ryd( 3p)     0.00240       0.55628
  10    C  1  dxy    Ryd( 3d)     0.00062       2.29338
  11    C  1  dxz    Ryd( 3d)     0.00052       2.22417
  12    C  1  dyz    Ryd( 3d)     0.00037       2.20273
  13    C  1  dx2y2  Ryd( 3d)     0.00033       2.12295
  14    C  1  dz2    Ryd( 3d)     0.00045       2.20337

  15    C  2  s      Cor( 1s)     1.99894      -9.80425
  16    C  2  s      Val( 2s)     0.95658      -0.18027
  17    C  2  s      Ryd( 3s)     0.00307       0.86079
  18    C  2  px     Val( 2p)     1.12026      -0.07561
  19    C  2  px     Ryd( 3p)     0.00485       0.76418
  20    C  2  py     Val( 2p)     1.11409      -0.08919
  21    C  2  py     Ryd( 3p)     0.00232       0.62621
  22    C  2  pz     Val( 2p)     0.93180      -0.07368
  23    C  2  pz     Ryd( 3p)     0.00387       0.63865
  24    C  2  dxy    Ryd( 3d)     0.00081       2.30686
  25    C  2  dxz    Ryd( 3d)     0.00123       2.18527
  26    C  2  dyz    Ryd( 3d)     0.00132       2.11837
  27    C  2  dx2y2  Ryd( 3d)     0.00074       2.06129
  28    C  2  dz2    Ryd( 3d)     0.00126       2.15946

  29    C  3  s      Cor( 1s)     1.99931      -9.85501
  30    C  3  s      Val( 2s)     0.92707      -0.17679
  31    C  3  s      Ryd( 3s)     0.00951       0.53819
  32    C  3  px     Val( 2p)     0.82708      -0.02895
  33    C  3  px     Ryd( 3p)     0.01145       0.61886
  34    C  3  py     Val( 2p)     1.04039      -0.05185
  35    C  3  py     Ryd( 3p)     0.00221       0.61003
  36    C  3  pz     Val( 2p)     0.74904      -0.08588
  37    C  3  pz     Ryd( 3p)     0.00772       0.50243
  38    C  3  dxy    Ryd( 3d)     0.00280       2.28345
  39    C  3  dxz    Ryd( 3d)     0.00132       2.15581
  40    C  3  dyz    Ryd( 3d)     0.00134       2.00526
  41    C  3  dx2y2  Ryd( 3d)     0.00152       2.17073
  42    C  3  dz2    Ryd( 3d)     0.00153       2.02178

  43    O  4  s      Cor( 1s)     1.99973     -18.50304
  44    O  4  s      Val( 2s)     1.69280      -0.79868
  45    O  4  s      Ryd( 3s)     0.00170       1.41111
  46    O  4  px     Val( 2p)     1.56080      -0.26347
  47    O  4  px     Ryd( 3p)     0.00067       0.99916
  48    O  4  py     Val( 2p)     1.81282      -0.21069
  49    O  4  py     Ryd( 3p)     0.00346       1.11252
  50    O  4  pz     Val( 2p)     1.42478      -0.24367
  51    O  4  pz     Ryd( 3p)     0.00058       0.99105
  52    O  4  dxy    Ryd( 3d)     0.00152       2.73434
  53    O  4  dxz    Ryd( 3d)     0.00238       3.01153
  54    O  4  dyz    Ryd( 3d)     0.00063       2.62363
  55    O  4  dx2y2  Ryd( 3d)     0.00173       2.85703
  56    O  4  dz2    Ryd( 3d)     0.00139       2.66955

  57    N  5  s      Cor( 1s)     1.99921     -13.79096
  58    N  5  s      Val( 2s)     1.35520      -0.43909
  59    N  5  s      Ryd( 3s)     0.00475       1.01485
  60    N  5  px     Val( 2p)     1.53741      -0.16821
  61    N  5  px     Ryd( 3p)     0.00406       0.90746
  62    N  5  py     Val( 2p)     1.42818      -0.16236
  63    N  5  py     Ryd( 3p)     0.00344       0.89368
  64    N  5  pz     Val( 2p)     1.23302      -0.15353
  65    N  5  pz     Ryd( 3p)     0.00519       1.12561
  66    N  5  dxy    Ryd( 3d)     0.00157       2.31195
  67    N  5  dxz    Ryd( 3d)     0.00143       2.61899
  68    N  5  dyz    Ryd( 3d)     0.00091       2.46951
  69    N  5  dx2y2  Ryd( 3d)     0.00161       2.22978
  70    N  5  dz2    Ryd( 3d)     0.00091       2.60413

  71    C  6  s      Cor( 1s)     1.99912      -9.84256
  72    C  6  s      Val( 2s)     0.85893      -0.13349
  73    C  6  s      Ryd( 3s)     0.00699       0.38732
  74    C  6  px     Val( 2p)     1.01970      -0.07283
  75    C  6  px     Ryd( 3p)     0.00396       0.62637
  76    C  6  py     Val( 2p)     0.97385      -0.09815
  77    C  6  py     Ryd( 3p)     0.00325       0.54721
  78    C  6  pz     Val( 2p)     0.83518      -0.00387
  79    C  6  pz     Ryd( 3p)     0.00297       0.52464
  80    C  6  dxy    Ryd( 3d)     0.00073       2.15822
  81    C  6  dxz    Ryd( 3d)     0.00197       2.19479
  82    C  6  dyz    Ryd( 3d)     0.00212       2.08247
  83    C  6  dx2y2  Ryd( 3d)     0.00045       1.87247
  84    C  6  dz2    Ryd( 3d)     0.00199       2.36244

  85    N  7  s      Cor( 1s)     1.99932     -13.87955
  86    N  7  s      Val( 2s)     1.32340      -0.50180
  87    N  7  s      Ryd( 3s)     0.00071       0.95548
  88    N  7  px     Val( 2p)     1.50675      -0.21188
  89    N  7  px     Ryd( 3p)     0.00270       0.91555
  90    N  7  py     Val( 2p)     1.59530      -0.21706
  91    N  7  py     Ryd( 3p)     0.00316       0.85021
  92    N  7  pz     Val( 2p)     1.35181      -0.21719
  93    N  7  pz     Ryd( 3p)     0.00217       0.86338
  94    N  7  dxy    Ryd( 3d)     0.00054       2.50464
  95    N  7  dxz    Ryd( 3d)     0.00028       2.45116
  96    N  7  dyz    Ryd( 3d)     0.00087       2.55086
  97    N  7  dx2y2  Ryd( 3d)     0.00056       2.37825
  98    N  7  dz2    Ryd( 3d)     0.00064       2.66480

  99    H  8  s      Val( 1s)     0.76751       0.06932
 100    H  8  s      Ryd( 2s)     0.00235       0.33843
 101    H  8  px     Ryd( 2p)     0.00023       1.79437
 102    H  8  py     Ryd( 2p)     0.00017       1.75989
 103    H  8  pz     Ryd( 2p)     0.00069       2.17462

 104    H  9  s      Val( 1s)     0.77010       0.07016
 105    H  9  s      Ryd( 2s)     0.00310       0.34475
 106    H  9  px     Ryd( 2p)     0.00060       2.10522
 107    H  9  py     Ryd( 2p)     0.00034       1.91281
 108    H  9  pz     Ryd( 2p)     0.00014       1.75015

 109    H 10  s      Val( 1s)     0.76575       0.06982
 110    H 10  s      Ryd( 2s)     0.00234       0.33340
 111    H 10  px     Ryd( 2p)     0.00022       1.77540
 112    H 10  py     Ryd( 2p)     0.00061       2.15501
 113    H 10  pz     Ryd( 2p)     0.00026       1.81861

 114    H 11  s      Val( 1s)     0.78066       0.06413
 115    H 11  s      Ryd( 2s)     0.00792       0.36241
 116    H 11  px     Ryd( 2p)     0.00070       2.07484
 117    H 11  py     Ryd( 2p)     0.00035       1.89098
 118    H 11  pz     Ryd( 2p)     0.00011       1.74348

 119    H 12  s      Val( 1s)     0.86798       0.02539
 120    H 12  s      Ryd( 2s)     0.00712       0.34577
 121    H 12  px     Ryd( 2p)     0.00042       1.96157
 122    H 12  py     Ryd( 2p)     0.00069       2.03613
 123    H 12  pz     Ryd( 2p)     0.00010       1.65849

 124    H 13  s      Val( 1s)     0.83934       0.02196
 125    H 13  s      Ryd( 2s)     0.00638       0.31959
 126    H 13  px     Ryd( 2p)     0.00065       2.04608
 127    H 13  py     Ryd( 2p)     0.00039       1.82416
 128    H 13  pz     Ryd( 2p)     0.00005       1.85839

 129    H 14  s      Val( 1s)     0.60198       0.07079
 130    H 14  s      Ryd( 2s)     0.00456       0.33779
 131    H 14  px     Ryd( 2p)     0.00112       2.21285
 132    H 14  py     Ryd( 2p)     0.00071       1.78921
 133    H 14  pz     Ryd( 2p)     0.00024       1.75179

 134    H 15  s      Val( 1s)     0.60732       0.06316
 135    H 15  s      Ryd( 2s)     0.00183       0.32475
 136    H 15  px     Ryd( 2p)     0.00051       1.74336
 137    H 15  py     Ryd( 2p)     0.00081       1.89574
 138    H 15  pz     Ryd( 2p)     0.00090       2.10793

   1 low occupancy (<1.9990e) core orbital  found on  C  2


 Summary of Natural Population Analysis:

                                     Natural Population
             Natural    ---------------------------------------------
  Atom No    Charge        Core      Valence    Rydberg      Total
 --------------------------------------------------------------------
    C  1   -0.64798      1.99917     4.63957    0.00924     6.64798
    C  2   -0.14114      1.99894     4.12273    0.01946     6.14114
    C  3    0.41771      1.99931     3.54358    0.03940     5.58229
    O  4   -0.50498      1.99973     6.49120    0.01405     8.50498
    N  5   -0.57689      1.99921     5.55381    0.02388     7.57689
    C  6    0.28877      1.99912     3.68767    0.02445     5.71123
    N  7   -0.78821      1.99932     5.77726    0.01163     7.78821
    H  8    0.22904      0.00000     0.76751    0.00345     0.77096
    H  9    0.22573      0.00000     0.77010    0.00417     0.77427
    H 10    0.23081      0.00000     0.76575    0.00343     0.76919
    H 11    0.21025      0.00000     0.78066    0.00908     0.78975
    H 12    0.12369      0.00000     0.86798    0.00832     0.87631
    H 13    0.15318      0.00000     0.83934    0.00748     0.84682
    H 14    0.39139      0.00000     0.60198    0.00663     0.60861
    H 15    0.38862      0.00000     0.60732    0.00406     0.61138
 ====================================================================
 * Total *  0.00000     13.99479    39.81647    0.18873    54.00000

                                 Natural Population
 ---------------------------------------------------------
   Core                      13.99479 ( 99.9628% of   14)
   Valence                   39.81647 ( 99.5412% of   40)
   Natural Minimal Basis     53.81127 ( 99.6505% of   54)
   Natural Rydberg Basis      0.18873 (  0.3495% of   54)
 ---------------------------------------------------------

    Atom No         Natural Electron Configuration
 ----------------------------------------------------------------------------
      C  1      [core]2s( 1.09)2p( 3.55)3p( 0.01)
      C  2      [core]2s( 0.96)2p( 3.17)3p( 0.01)3d( 0.01)
      C  3      [core]2s( 0.93)2p( 2.62)3s( 0.01)3p( 0.02)3d( 0.01)
      O  4      [core]2s( 1.69)2p( 4.80)3d( 0.01)
      N  5      [core]2s( 1.36)2p( 4.20)3p( 0.01)3d( 0.01)
      C  6      [core]2s( 0.86)2p( 2.83)3s( 0.01)3p( 0.01)3d( 0.01)
      N  7      [core]2s( 1.32)2p( 4.45)3p( 0.01)
      H  8            1s( 0.77)
      H  9            1s( 0.77)
      H 10            1s( 0.77)
      H 11            1s( 0.78)2s( 0.01)
      H 12            1s( 0.87)2s( 0.01)
      H 13            1s( 0.84)2s( 0.01)
      H 14            1s( 0.60)
      H 15            1s( 0.61)


 NATURAL BOND ORBITAL ANALYSIS:

                            Occupancies       Lewis Structure    Low   High
         Max    Occ     -------------------  -----------------   occ   occ
  Cycle  Ctr   Thresh    Lewis   non-Lewis     CR  BD  nC  LP    (L)   (NL)
 ============================================================================
    1     2     1.90    48.09609   5.90391      7  10   0  10     9      9
    2     2     1.88    49.53097   4.46903      7  12   0   8     7      7
    3     2     1.87    51.79651   2.20349      7  15   0   5     3      3
    4     2     1.86    52.74671   1.25329      7  16   0   4     1      1
    5     2     1.75    53.17575   0.82425      7  16   0   4     0      1
 ----------------------------------------------------------------------------

 Structure accepted: No low occupancy Lewis orbitals

 -------------------------------------------------------
   Core                     13.99479 ( 99.963% of  14)
   Valence Lewis            39.18096 ( 97.952% of  40)
  ==================      =============================
   Total Lewis              53.17575 ( 98.474% of  54)
  -----------------------------------------------------
   Valence non-Lewis         0.69567 (  1.288% of  54)
   Rydberg non-Lewis         0.12858 (  0.238% of  54)
  ==================      =============================
   Total non-Lewis           0.82425 (  1.526% of  54)
 -------------------------------------------------------


     (Occupancy)   Bond orbital / Coefficients / Hybrids
 ------------------ Lewis ------------------------------------------------------
   1. (1.99917) CR ( 1) C  1            s(100.00%)
                                         1.0000  0.0000  0.0000  0.0000  0.0000
                                         0.0000  0.0000  0.0000  0.0000  0.0000
                                         0.0000  0.0000  0.0000  0.0000
   2. (1.99894) CR ( 1) C  2            s(100.00%)
                                         1.0000  0.0000  0.0000  0.0000  0.0000
                                         0.0000  0.0000  0.0000  0.0000  0.0000
                                         0.0000  0.0000  0.0000  0.0000
   3. (1.99931) CR ( 1) C  3            s(100.00%)
                                         1.0000  0.0000  0.0000  0.0000  0.0000
                                         0.0000  0.0000  0.0000  0.0000  0.0000
                                         0.0000  0.0000  0.0000  0.0000
   4. (1.99973) CR ( 1) O  4            s(100.00%)
                                         1.0000  0.0000  0.0000  0.0000  0.0000
                                         0.0000  0.0000  0.0000  0.0000  0.0000
                                         0.0000  0.0000  0.0000  0.0000
   5. (1.99921) CR ( 1) N  5            s(100.00%)
                                         1.0000  0.0000  0.0000  0.0000  0.0000
                                         0.0000  0.0000  0.0000  0.0000  0.0000
                                         0.0000  0.0000  0.0000  0.0000
   6. (1.99912) CR ( 1) C  6            s(100.00%)
                                         1.0000  0.0000  0.0000  0.0000  0.0000
                                         0.0000  0.0000  0.0000  0.0000  0.0000
                                         0.0000  0.0000  0.0000  0.0000
   7. (1.99932) CR ( 1) N  7            s(100.00%)
                                         1.0000  0.0000  0.0000  0.0000  0.0000
                                         0.0000  0.0000  0.0000  0.0000  0.0000
                                         0.0000  0.0000  0.0000  0.0000
   8. (1.98093) LP ( 1) O  4            s( 55.43%)p 0.80( 44.54%)d 0.00(  0.03%)
                                         0.0000  0.7443 -0.0166  0.5613 -0.0031
                                         0.0627 -0.0002 -0.3555  0.0017 -0.0015
                                         0.0154  0.0032 -0.0093  0.0032
   9. (1.86868) LP ( 2) O  4            s(  0.00%)p 1.00( 99.89%)d 0.00(  0.11%)
                                         0.0000  0.0008  0.0056 -0.2392  0.0027
                                         0.9474 -0.0169 -0.2093  0.0037 -0.0250
                                         0.0013  0.0172  0.0101 -0.0060
  10. (1.87992) LP ( 1) N  5            s( 28.53%)p 2.50( 71.39%)d 0.00(  0.08%)
                                         0.0000  0.5334 -0.0266 -0.6866 -0.0211
                                         0.4908  0.0148 -0.0289  0.0034  0.0226
                                        -0.0036  0.0019 -0.0080  0.0160
  11. (1.75765) LP ( 1) N  7            s(  5.12%)p18.52( 94.85%)d 0.00(  0.02%)
                                         0.0000  0.2263 -0.0048  0.5659  0.0219
                                         0.7592  0.0274  0.2252  0.0044 -0.0084
                                        -0.0050 -0.0084  0.0067  0.0048
  12. (1.95788) BD ( 1) C  1- C  2
               ( 48.89%)   0.6992* C  1 s( 29.51%)p 2.39( 70.46%)d 0.00(  0.04%)
                                         0.0000  0.5432  0.0011  0.5516  0.0009
                                         0.3921 -0.0105  0.4964  0.0046  0.0106
                                         0.0131  0.0091  0.0030  0.0003
               ( 51.11%)   0.7149* C  2 s( 26.91%)p 2.72( 73.06%)d 0.00(  0.03%)
                                         0.0000  0.5186  0.0105 -0.5577  0.0064
                                        -0.4139 -0.0160 -0.4979  0.0067  0.0084
                                         0.0136  0.0059  0.0054  0.0027
  13. (1.98464) BD ( 1) C  1- H  8
               ( 61.51%)   0.7843* C  1 s( 23.60%)p 3.24( 76.36%)d 0.00(  0.04%)
                                         0.0000  0.4858 -0.0009  0.3566 -0.0124
                                        -0.1956 -0.0099 -0.7732 -0.0048 -0.0025
                                        -0.0134  0.0054  0.0030  0.0118
               ( 38.49%)   0.6204* H  8 s( 99.90%)p 0.00(  0.10%)
                                         0.9995 -0.0018 -0.0122  0.0076  0.0285
  14. (1.98695) BD ( 1) C  1- H  9
               ( 61.53%)   0.7844* C  1 s( 23.58%)p 3.24( 76.39%)d 0.00(  0.04%)
                                         0.0000  0.4855 -0.0017 -0.7024 -0.0085
                                         0.4992 -0.0129 -0.1450 -0.0065 -0.0156
                                         0.0036 -0.0024  0.0037 -0.0091
               ( 38.47%)   0.6203* H  9 s( 99.90%)p 0.00(  0.10%)
                                         0.9995 -0.0036  0.0265 -0.0167  0.0045
  15. (1.98101) BD ( 1) C  1- H 10
               ( 61.56%)   0.7846* C  1 s( 23.27%)p 3.30( 76.69%)d 0.00(  0.04%)
                                         0.0000  0.4824  0.0034 -0.2731 -0.0066
                                        -0.7471  0.0010  0.3662 -0.0121  0.0077
                                        -0.0038 -0.0128 -0.0104 -0.0031
               ( 38.44%)   0.6200* H 10 s( 99.90%)p 0.00(  0.10%)
                                         0.9995 -0.0019  0.0104  0.0261 -0.0127
  16. (1.97120) BD ( 1) C  2- C  3
               ( 52.61%)   0.7253* C  2 s( 25.07%)p 2.99( 74.89%)d 0.00(  0.04%)
                                         0.0000  0.5006  0.0052  0.2534  0.0111
                                         0.7373  0.0009 -0.3753  0.0075  0.0079
                                        -0.0022 -0.0135 -0.0136 -0.0039
               ( 47.39%)   0.6884* C  3 s( 37.05%)p 1.70( 62.91%)d 0.00(  0.05%)
                                         0.0000  0.6086 -0.0044 -0.1890  0.0083
                                        -0.6817  0.0132  0.3583  0.0023  0.0079
                                        -0.0033 -0.0142 -0.0136 -0.0043
  17. (1.96841) BD ( 1) C  2- N  5
               ( 40.41%)   0.6357* C  2 s( 24.08%)p 3.15( 75.81%)d 0.00(  0.10%)
                                         0.0000  0.4906  0.0121 -0.3664 -0.0122
                                         0.1840  0.0089  0.7679  0.0095 -0.0057
                                        -0.0217  0.0139  0.0030  0.0183
               ( 59.59%)   0.7720* N  5 s( 31.57%)p 2.16( 68.35%)d 0.00(  0.08%)
                                         0.0000  0.5619  0.0054  0.3336  0.0124
                                        -0.1857 -0.0080 -0.7330  0.0104 -0.0128
                                        -0.0202  0.0116  0.0062  0.0067
  18. (1.97001) BD ( 1) C  2- H 11
               ( 61.59%)   0.7848* C  2 s( 24.00%)p 3.17( 75.97%)d 0.00(  0.03%)
                                         0.0000  0.4895 -0.0189  0.6994 -0.0114
                                        -0.5003  0.0060  0.1412 -0.0116 -0.0128
                                         0.0021 -0.0010  0.0062 -0.0100
               ( 38.41%)   0.6198* H 11 s( 99.88%)p 0.00(  0.12%)
                                         0.9993 -0.0139 -0.0286  0.0185 -0.0022
  19. (1.99639) BD ( 1) C  3- O  4
               ( 33.15%)   0.5757* C  3 s( 31.54%)p 2.16( 68.25%)d 0.01(  0.22%)
                                         0.0000  0.5576  0.0670  0.7095  0.0562
                                         0.0876  0.0254 -0.4069 -0.0447  0.0079
                                        -0.0346 -0.0028  0.0296 -0.0034
               ( 66.85%)   0.8176* O  4 s( 44.54%)p 1.24( 55.26%)d 0.00(  0.20%)
                                         0.0000  0.6668  0.0275 -0.6039 -0.0163
                                        -0.0584  0.0003  0.4291  0.0108  0.0072
                                        -0.0340 -0.0027  0.0273 -0.0002
  20. (1.99073) BD ( 2) C  3- O  4
               ( 34.75%)   0.5895* C  3 s(  0.05%)p99.99( 99.67%)d 6.18(  0.28%)
                                         0.0000  0.0212 -0.0020 -0.4600  0.0203
                                        -0.2923  0.0109 -0.8357  0.0273 -0.0152
                                        -0.0242  0.0055 -0.0197  0.0397
               ( 65.25%)   0.8078* O  4 s(  0.08%)p99.99( 99.75%)d 2.27(  0.17%)
                                         0.0000  0.0274  0.0013 -0.5100 -0.0080
                                        -0.3061 -0.0038 -0.8022 -0.0116  0.0129
                                         0.0163 -0.0032  0.0165 -0.0315
  21. (1.98763) BD ( 1) C  3- H 12
               ( 58.46%)   0.7646* C  3 s( 31.45%)p 2.18( 68.51%)d 0.00(  0.04%)
                                         0.0000  0.5600 -0.0289 -0.4910  0.0171
                                         0.6640  0.0044  0.0525 -0.0092 -0.0181
                                         0.0008  0.0048 -0.0023 -0.0084
               ( 41.54%)   0.6445* H 12 s( 99.89%)p 0.00(  0.11%)
                                         0.9993 -0.0189  0.0205 -0.0255 -0.0042
  22. (1.98669) BD ( 1) N  5- C  6
               ( 60.13%)   0.7754* N  5 s( 40.00%)p 1.50( 59.89%)d 0.00(  0.11%)
                                         0.0000  0.6315  0.0349  0.2749  0.0054
                                        -0.2592 -0.0012  0.6741 -0.0409 -0.0129
                                         0.0214 -0.0173  0.0027  0.0133
               ( 39.87%)   0.6314* C  6 s( 37.02%)p 1.70( 62.87%)d 0.00(  0.11%)
                                         0.0000  0.6082  0.0176 -0.3543 -0.0223
                                         0.2713  0.0164 -0.6547 -0.0116 -0.0128
                                         0.0207 -0.0161  0.0031  0.0144
  23. (1.96361) BD ( 2) N  5- C  6
               ( 61.27%)   0.7828* N  5 s(  0.01%)p 1.00( 99.85%)d 0.00(  0.15%)
                                         0.0000  0.0081  0.0003  0.5821 -0.0035
                                         0.8094 -0.0046  0.0660 -0.0035  0.0109
                                         0.0115  0.0118  0.0330  0.0014
               ( 38.73%)   0.6223* C  6 s(  0.01%)p 1.00( 99.83%)d 0.00(  0.16%)
                                         0.0000  0.0046  0.0066  0.5825 -0.0182
                                         0.8109 -0.0251  0.0253  0.0008 -0.0061
                                        -0.0198 -0.0268 -0.0207 -0.0033
  24. (1.99019) BD ( 1) C  6- N  7
               ( 38.45%)   0.6201* C  6 s( 30.34%)p 2.29( 69.53%)d 0.00(  0.13%)
                                         0.0000  0.5489  0.0452 -0.3018 -0.0050
                                         0.1900  0.0075  0.7527  0.0382 -0.0079
                                        -0.0196  0.0124  0.0030  0.0264
               ( 61.55%)   0.7845* N  7 s( 40.09%)p 1.49( 59.86%)d 0.00(  0.05%)
                                         0.0000  0.6331  0.0073  0.2656 -0.0052
                                        -0.1779  0.0033 -0.7045  0.0095 -0.0092
                                        -0.0076  0.0094  0.0000  0.0178
  25. (1.98179) BD ( 1) C  6- H 13
               ( 59.13%)   0.7690* C  6 s( 32.80%)p 2.05( 67.16%)d 0.00(  0.04%)
                                         0.0000  0.5714 -0.0395  0.6641 -0.0113
                                        -0.4791  0.0099 -0.0275  0.0104 -0.0155
                                         0.0025 -0.0022  0.0049 -0.0110
               ( 40.87%)   0.6393* H 13 s( 99.90%)p 0.00(  0.10%)
                                         0.9994 -0.0156 -0.0262  0.0184  0.0022
  26. (1.98899) BD ( 1) N  7- H 14
               ( 70.20%)   0.8379* N  7 s( 27.59%)p 2.62( 72.37%)d 0.00(  0.05%)
                                         0.0000  0.5252 -0.0014 -0.7555  0.0140
                                         0.3795 -0.0102  0.0909 -0.0167 -0.0120
                                         0.0001 -0.0017  0.0160 -0.0077
               ( 29.80%)   0.5459* H 14 s( 99.80%)p 0.00(  0.20%)
                                         0.9990 -0.0082  0.0381 -0.0241 -0.0010
  27. (1.98765) BD ( 1) N  7- H 15
               ( 69.69%)   0.8348* N  7 s( 27.12%)p 2.69( 72.83%)d 0.00(  0.05%)
                                         0.0000  0.5208 -0.0005  0.1931  0.0028
                                        -0.4969  0.0023  0.6659 -0.0258 -0.0079
                                         0.0029 -0.0182 -0.0086  0.0046
               ( 30.31%)   0.5505* H 15 s( 99.80%)p 0.00(  0.20%)
                                         0.9990 -0.0023 -0.0139  0.0226 -0.0355
 ---------------- non-Lewis ----------------------------------------------------
  28. (0.02409) BD*( 1) C  1- C  2
               ( 51.11%)   0.7149* C  1 s( 29.51%)p 2.39( 70.46%)d 0.00(  0.04%)
                                         0.0000  0.5432  0.0011  0.5516  0.0009
                                         0.3921 -0.0105  0.4964  0.0046  0.0106
                                         0.0131  0.0091  0.0030  0.0003
               ( 48.89%)  -0.6992* C  2 s( 26.91%)p 2.72( 73.06%)d 0.00(  0.03%)
                                         0.0000  0.5186  0.0105 -0.5577  0.0064
                                        -0.4139 -0.0160 -0.4979  0.0067  0.0084
                                         0.0136  0.0059  0.0054  0.0027
  29. (0.00703) BD*( 1) C  1- H  8
               ( 38.49%)   0.6204* C  1 s( 23.60%)p 3.24( 76.36%)d 0.00(  0.04%)
                                         0.0000 -0.4858  0.0009 -0.3566  0.0124
                                         0.1956  0.0099  0.7732  0.0048  0.0025
                                         0.0134 -0.0054 -0.0030 -0.0118
               ( 61.51%)  -0.7843* H  8 s( 99.90%)p 0.00(  0.10%)
                                        -0.9995  0.0018  0.0122 -0.0076 -0.0285
  30. (0.01039) BD*( 1) C  1- H  9
               ( 38.47%)   0.6203* C  1 s( 23.58%)p 3.24( 76.39%)d 0.00(  0.04%)
                                         0.0000 -0.4855  0.0017  0.7024  0.0085
                                        -0.4992  0.0129  0.1450  0.0065  0.0156
                                        -0.0036  0.0024 -0.0037  0.0091
               ( 61.53%)  -0.7844* H  9 s( 99.90%)p 0.00(  0.10%)
                                        -0.9995  0.0036 -0.0265  0.0167 -0.0045
  31. (0.00826) BD*( 1) C  1- H 10
               ( 38.44%)   0.6200* C  1 s( 23.27%)p 3.30( 76.69%)d 0.00(  0.04%)
                                         0.0000 -0.4824 -0.0034  0.2731  0.0066
                                         0.7471 -0.0010 -0.3662  0.0121 -0.0077
                                         0.0038  0.0128  0.0104  0.0031
               ( 61.56%)  -0.7846* H 10 s( 99.90%)p 0.00(  0.10%)
                                        -0.9995  0.0019 -0.0104 -0.0261  0.0127
  32. (0.07573) BD*( 1) C  2- C  3
               ( 47.39%)   0.6884* C  2 s( 25.07%)p 2.99( 74.89%)d 0.00(  0.04%)
                                         0.0000 -0.5006 -0.0052 -0.2534 -0.0111
                                        -0.7373 -0.0009  0.3753 -0.0075 -0.0079
                                         0.0022  0.0135  0.0136  0.0039
               ( 52.61%)  -0.7253* C  3 s( 37.05%)p 1.70( 62.91%)d 0.00(  0.05%)
                                         0.0000 -0.6086  0.0044  0.1890 -0.0083
                                         0.6817 -0.0132 -0.3583 -0.0023 -0.0079
                                         0.0033  0.0142  0.0136  0.0043
  33. (0.02738) BD*( 1) C  2- N  5
               ( 59.59%)   0.7720* C  2 s( 24.08%)p 3.15( 75.81%)d 0.00(  0.10%)
                                         0.0000  0.4906  0.0121 -0.3664 -0.0122
                                         0.1840  0.0089  0.7679  0.0095 -0.0057
                                        -0.0217  0.0139  0.0030  0.0183
               ( 40.41%)  -0.6357* N  5 s( 31.57%)p 2.16( 68.35%)d 0.00(  0.08%)
                                         0.0000  0.5619  0.0054  0.3336  0.0124
                                        -0.1857 -0.0080 -0.7330  0.0104 -0.0128
                                        -0.0202  0.0116  0.0062  0.0067
  34. (0.04008) BD*( 1) C  2- H 11
               ( 38.41%)   0.6198* C  2 s( 24.00%)p 3.17( 75.97%)d 0.00(  0.03%)
                                         0.0000 -0.4895  0.0189 -0.6994  0.0114
                                         0.5003 -0.0060 -0.1412  0.0116  0.0128
                                        -0.0021  0.0010 -0.0062  0.0100
               ( 61.59%)  -0.7848* H 11 s( 99.88%)p 0.00(  0.12%)
                                        -0.9993  0.0139  0.0286 -0.0185  0.0022
  35. (0.00586) BD*( 1) C  3- O  4
               ( 66.85%)   0.8176* C  3 s( 31.54%)p 2.16( 68.25%)d 0.01(  0.22%)
                                         0.0000  0.5576  0.0670  0.7095  0.0562
                                         0.0876  0.0254 -0.4069 -0.0447  0.0079
                                        -0.0346 -0.0028  0.0296 -0.0034
               ( 33.15%)  -0.5757* O  4 s( 44.54%)p 1.24( 55.26%)d 0.00(  0.20%)
                                         0.0000  0.6668  0.0275 -0.6039 -0.0163
                                        -0.0584  0.0003  0.4291  0.0108  0.0072
                                        -0.0340 -0.0027  0.0273 -0.0002
  36. (0.04774) BD*( 2) C  3- O  4
               ( 65.25%)   0.8078* C  3 s(  0.05%)p99.99( 99.67%)d 6.18(  0.28%)
                                         0.0000  0.0212 -0.0020 -0.4600  0.0203
                                        -0.2923  0.0109 -0.8357  0.0273 -0.0152
                                        -0.0242  0.0055 -0.0197  0.0397
               ( 34.75%)  -0.5895* O  4 s(  0.08%)p99.99( 99.75%)d 2.27(  0.17%)
                                         0.0000  0.0274  0.0013 -0.5100 -0.0080
                                        -0.3061 -0.0038 -0.8022 -0.0116  0.0129
                                         0.0163 -0.0032  0.0165 -0.0315
  37. (0.07348) BD*( 1) C  3- H 12
               ( 41.54%)   0.6445* C  3 s( 31.45%)p 2.18( 68.51%)d 0.00(  0.04%)
                                         0.0000 -0.5600  0.0289  0.4910 -0.0171
                                        -0.6640 -0.0044 -0.0525  0.0092  0.0181
                                        -0.0008 -0.0048  0.0023  0.0084
               ( 58.46%)  -0.7646* H 12 s( 99.89%)p 0.00(  0.11%)
                                        -0.9993  0.0189 -0.0205  0.0255  0.0042
  38. (0.01188) BD*( 1) N  5- C  6
               ( 39.87%)   0.6314* N  5 s( 40.00%)p 1.50( 59.89%)d 0.00(  0.11%)
                                         0.0000 -0.6315 -0.0349 -0.2749 -0.0054
                                         0.2592  0.0012 -0.6741  0.0409  0.0129
                                        -0.0214  0.0173 -0.0027 -0.0133
               ( 60.13%)  -0.7754* C  6 s( 37.02%)p 1.70( 62.87%)d 0.00(  0.11%)
                                         0.0000 -0.6082 -0.0176  0.3543  0.0223
                                        -0.2713 -0.0164  0.6547  0.0116  0.0128
                                        -0.0207  0.0161 -0.0031 -0.0144
  39. (0.25636) BD*( 2) N  5- C  6
               ( 38.73%)   0.6223* N  5 s(  0.01%)p 1.00( 99.85%)d 0.00(  0.15%)
                                         0.0000 -0.0081 -0.0003 -0.5821  0.0035
                                        -0.8094  0.0046 -0.0660  0.0035 -0.0109
                                        -0.0115 -0.0118 -0.0330 -0.0014
               ( 61.27%)  -0.7828* C  6 s(  0.01%)p 1.00( 99.83%)d 0.00(  0.16%)
                                         0.0000 -0.0046 -0.0066 -0.5825  0.0182
                                        -0.8109  0.0251 -0.0253 -0.0008  0.0061
                                         0.0198  0.0268  0.0207  0.0033
  40. (0.03295) BD*( 1) C  6- N  7
               ( 61.55%)   0.7845* C  6 s( 30.34%)p 2.29( 69.53%)d 0.00(  0.13%)
                                         0.0000  0.5489  0.0452 -0.3018 -0.0050
                                         0.1900  0.0075  0.7527  0.0382 -0.0079
                                        -0.0196  0.0124  0.0030  0.0264
               ( 38.45%)  -0.6201* N  7 s( 40.09%)p 1.49( 59.86%)d 0.00(  0.05%)
                                         0.0000  0.6331  0.0073  0.2656 -0.0052
                                        -0.1779  0.0033 -0.7045  0.0095 -0.0092
                                        -0.0076  0.0094  0.0000  0.0178
  41. (0.05077) BD*( 1) C  6- H 13
               ( 40.87%)   0.6393* C  6 s( 32.80%)p 2.05( 67.16%)d 0.00(  0.04%)
                                         0.0000 -0.5714  0.0395 -0.6641  0.0113
                                         0.4791 -0.0099  0.0275 -0.0104  0.0155
                                        -0.0025  0.0022 -0.0049  0.0110
               ( 59.13%)  -0.7690* H 13 s( 99.90%)p 0.00(  0.10%)
                                        -0.9994  0.0156  0.0262 -0.0184 -0.0022
  42. (0.01486) BD*( 1) N  7- H 14
               ( 29.80%)   0.5459* N  7 s( 27.59%)p 2.62( 72.37%)d 0.00(  0.05%)
                                         0.0000 -0.5252  0.0014  0.7555 -0.0140
                                        -0.3795  0.0102 -0.0909  0.0167  0.0120
                                        -0.0001  0.0017 -0.0160  0.0077
               ( 70.20%)  -0.8379* H 14 s( 99.80%)p 0.00(  0.20%)
                                        -0.9990  0.0082 -0.0381  0.0241  0.0010
  43. (0.00879) BD*( 1) N  7- H 15
               ( 30.31%)   0.5505* N  7 s( 27.12%)p 2.69( 72.83%)d 0.00(  0.05%)
                                         0.0000 -0.5208  0.0005 -0.1931 -0.0028
                                         0.4969 -0.0023 -0.6659  0.0258  0.0079
                                        -0.0029  0.0182  0.0086 -0.0046
               ( 69.69%)  -0.8348* H 15 s( 99.80%)p 0.00(  0.20%)
                                        -0.9990  0.0023  0.0139 -0.0226  0.0355
  44. (0.00306) RY ( 1) C  1            s(  0.54%)p99.99( 92.76%)d12.39(  6.70%)
                                         0.0000  0.0068  0.0732  0.0058  0.3889
                                         0.0120  0.5061 -0.0068 -0.7211  0.1434
                                        -0.0815 -0.0313 -0.0475 -0.1912
  45. (0.00235) RY ( 2) C  1            s( 12.96%)p 5.96( 77.23%)d 0.76(  9.80%)
                                         0.0000  0.0115  0.3599 -0.0054 -0.2735
                                         0.0093  0.7164 -0.0031  0.4291  0.1364
                                        -0.1241  0.0967 -0.2270  0.0560
  46. (0.00086) RY ( 3) C  1            s( 27.58%)p 2.52( 69.42%)d 0.11(  3.00%)
                                         0.0000  0.0102  0.5251 -0.0059  0.7490
                                        -0.0067 -0.1181 -0.0084  0.3452 -0.0281
                                         0.0722 -0.0698  0.1332  0.0368
  47. (0.00022) RY ( 4) C  1            s( 51.02%)p 0.69( 35.01%)d 0.27( 13.98%)
                                         0.0000 -0.0124  0.7141  0.0064 -0.3935
                                         0.0042 -0.2116  0.0102 -0.3876 -0.2639
                                        -0.0964 -0.0815  0.1146  0.2027
  48. (0.00010) RY ( 5) C  1            s(  4.20%)p 1.52(  6.39%)d21.28( 89.41%)
                                         0.0000 -0.0045  0.2049  0.0052 -0.2303
                                        -0.0017 -0.0893 -0.0156  0.0512  0.4247
                                         0.3903 -0.3411  0.1531 -0.6493
  49. (0.00004) RY ( 6) C  1            s(  0.24%)p37.75(  9.19%)d99.99( 90.57%)
  50. (0.00001) RY ( 7) C  1            s(  2.00%)p 3.36(  6.73%)d45.60( 91.27%)
  51. (0.00001) RY ( 8) C  1            s(  0.07%)p20.25(  1.49%)d99.99( 98.43%)
  52. (0.00000) RY ( 9) C  1            s(  1.43%)p 1.31(  1.87%)d67.76( 96.71%)
  53. (0.00637) RY ( 1) C  2            s( 33.23%)p 1.69( 56.14%)d 0.32( 10.63%)
                                         0.0000 -0.0041  0.5765  0.0278  0.5529
                                        -0.0172 -0.2730  0.0178  0.4241  0.1788
                                         0.0971 -0.0706 -0.0761  0.2326
  54. (0.00468) RY ( 2) C  2            s(  1.49%)p62.52( 93.24%)d 3.53(  5.27%)
                                         0.0000 -0.0058  0.1220  0.0074 -0.6835
                                        -0.0028  0.0994 -0.0088  0.6747  0.0121
                                         0.1796 -0.1065 -0.0616  0.0715
  55. (0.00195) RY ( 3) C  2            s(  1.10%)p66.07( 72.45%)d24.12( 26.45%)
                                         0.0000  0.0001  0.1047 -0.0054  0.2002
                                        -0.0106  0.8256 -0.0097  0.0506  0.0594
                                        -0.1427 -0.3807  0.2797  0.1320
  56. (0.00120) RY ( 4) C  2            s( 16.30%)p 1.51( 24.68%)d 3.62( 59.01%)
                                         0.0000 -0.0014  0.4037  0.0124 -0.1809
                                         0.0056  0.2738 -0.0114 -0.3726 -0.0676
                                         0.3694  0.4918 -0.0997  0.4442
  57. (0.00094) RY ( 5) C  2            s( 18.70%)p 2.11( 39.40%)d 2.24( 41.90%)
                                         0.0000  0.0003  0.4325  0.0019 -0.3699
                                        -0.0056 -0.2381  0.0026 -0.4477  0.3356
                                        -0.2201 -0.5074  0.0012  0.0236
  58. (0.00059) RY ( 6) C  2            s(  5.31%)p 1.13(  6.02%)d16.69( 88.67%)
                                         0.0000  0.0014  0.2305 -0.0003  0.0126
                                        -0.0026  0.2440  0.0111  0.0182  0.5052
                                         0.0900  0.3183 -0.1098 -0.7141
  59. (0.00036) RY ( 7) C  2            s(  0.29%)p10.77(  3.16%)d99.99( 96.55%)
                                         0.0000 -0.0054  0.0539  0.0086 -0.0602
                                        -0.0162  0.1128 -0.0245  0.1196  0.0427
                                        -0.8100  0.3190 -0.4114  0.1912
  60. (0.00025) RY ( 8) C  2            s( 11.19%)p 0.32(  3.61%)d 7.61( 85.19%)
                                         0.0000 -0.0042  0.3345  0.0102 -0.1090
                                         0.0106 -0.1391 -0.0160  0.0667 -0.2952
                                        -0.2965  0.2983  0.7481 -0.1683
  61. (0.00006) RY ( 9) C  2            s( 12.32%)p 0.13(  1.56%)d 6.99( 86.12%)
  62. (0.01459) RY ( 1) C  3            s( 19.36%)p 4.16( 80.48%)d 0.01(  0.15%)
                                         0.0000 -0.0595  0.4360 -0.0657  0.6955
                                        -0.0097  0.1289  0.0379 -0.5465 -0.0283
                                        -0.0019  0.0239  0.0094 -0.0070
  63. (0.00725) RY ( 2) C  3            s( 40.40%)p 0.26( 10.68%)d 1.21( 48.91%)
                                         0.0000  0.0058  0.6356 -0.0365 -0.2445
                                         0.0234 -0.1834  0.0028  0.1075  0.5756
                                        -0.0560 -0.3458 -0.1631  0.0920
  64. (0.00353) RY ( 3) C  3            s(  0.44%)p99.99( 79.26%)d46.53( 20.30%)
                                         0.0000  0.0103  0.0652 -0.0276 -0.5423
                                        -0.0220 -0.2141 -0.0341 -0.6710  0.0241
                                         0.0699  0.2720  0.1835 -0.2998
  65. (0.00148) RY ( 4) C  3            s( 17.64%)p 2.96( 52.23%)d 1.71( 30.14%)
                                         0.0000 -0.0106  0.4198 -0.0284 -0.2703
                                         0.0054  0.6454  0.0282  0.1761 -0.1853
                                        -0.2038  0.2592  0.3769  0.1272
  66. (0.00058) RY ( 5) C  3            s( 17.81%)p 2.38( 42.42%)d 2.23( 39.77%)
                                         0.0000  0.0169  0.4217  0.0029  0.0137
                                        -0.0036 -0.6015  0.0153  0.2488 -0.5700
                                         0.0679  0.2299  0.0102  0.1235
  67. (0.00030) RY ( 6) C  3            s(  3.02%)p 4.37( 13.18%)d27.79( 83.80%)
                                         0.0000  0.0034  0.1736 -0.0074  0.1097
                                        -0.0064  0.1354 -0.0303  0.3170  0.0716
                                         0.5314  0.1029  0.0070 -0.7347
  68. (0.00011) RY ( 7) C  3            s(  1.10%)p18.87( 20.82%)d70.77( 78.08%)
                                         0.0000  0.0040  0.1050  0.0221 -0.2676
                                         0.0082  0.3167 -0.0073 -0.1888 -0.4497
                                         0.2296 -0.3156 -0.6520  0.0337
  69. (0.00003) RY ( 8) C  3            s(  0.09%)p 7.11(  0.63%)d99.99( 99.28%)
  70. (0.00001) RY ( 9) C  3            s(  0.06%)p15.10(  0.95%)d99.99( 98.98%)
  71. (0.00325) RY ( 1) O  4            s(  0.30%)p99.99( 97.18%)d 8.31(  2.52%)
                                         0.0000  0.0005  0.0551  0.0038  0.2032
                                        -0.0117 -0.9443  0.0017  0.1967  0.1239
                                        -0.0142 -0.0838 -0.0412  0.0308
  72. (0.00015) RY ( 2) O  4            s( 46.25%)p 0.97( 45.09%)d 0.19(  8.66%)
                                         0.0000 -0.0191  0.6798  0.0352 -0.5894
                                         0.0048  0.0019 -0.0207  0.3191  0.1715
                                        -0.1585 -0.0433  0.1697  0.0370
  73. (0.00012) RY ( 3) O  4            s(  0.90%)p99.99( 95.80%)d 3.67(  3.30%)
                                         0.0000  0.0018  0.0948  0.0102 -0.3785
                                         0.0027 -0.2695  0.0174 -0.8612  0.0099
                                         0.0895  0.0913  0.0510 -0.1182
  74. (0.00004) RY ( 4) O  4            s( 47.77%)p 0.69( 32.83%)d 0.41( 19.40%)
  75. (0.00001) RY ( 5) O  4            s(  2.40%)p 6.18( 14.85%)d34.44( 82.75%)
  76. (0.00000) RY ( 6) O  4            s(  0.02%)p99.99(  9.13%)d99.99( 90.85%)
  77. (0.00000) RY ( 7) O  4            s(  0.23%)p 3.96(  0.90%)d99.99( 98.87%)
  78. (0.00000) RY ( 8) O  4            s(  2.07%)p 2.10(  4.35%)d45.31( 93.59%)
  79. (0.00000) RY ( 9) O  4            s(  0.01%)p 1.00(  0.44%)d99.99( 99.55%)
  80. (0.00531) RY ( 1) N  5            s( 34.26%)p 1.81( 62.10%)d 0.11(  3.64%)
                                         0.0000 -0.0102  0.5852 -0.0349  0.6244
                                         0.0255 -0.4631 -0.0123 -0.1210  0.0784
                                        -0.0032 -0.0309 -0.0225  0.1696
  81. (0.00311) RY ( 2) N  5            s(  0.64%)p99.99( 96.71%)d 4.17(  2.66%)
                                         0.0000  0.0153  0.0783  0.0079  0.2343
                                        -0.0033  0.1859  0.0268  0.9364  0.0300
                                         0.1532 -0.0317 -0.0185  0.0289
  82. (0.00273) RY ( 3) N  5            s(  0.05%)p99.99( 95.28%)d99.73(  4.67%)
                                         0.0000 -0.0070  0.0205 -0.0028  0.5109
                                         0.0053  0.7796 -0.0101 -0.2895 -0.0418
                                         0.0772  0.1958 -0.0128  0.0224
  83. (0.00041) RY ( 4) N  5            s( 63.00%)p 0.56( 35.42%)d 0.03(  1.58%)
                                         0.0000 -0.0096  0.7937 -0.0113 -0.5053
                                         0.0083  0.3126 -0.0246 -0.0163 -0.0072
                                         0.0929 -0.0666  0.0246 -0.0458
  84. (0.00021) RY ( 5) N  5            s(  0.00%)p 1.00(  4.79%)d19.88( 95.21%)
                                         0.0000  0.0009  0.0006 -0.0097 -0.1089
                                        -0.0105 -0.1890 -0.0041 -0.0095 -0.0992
                                         0.6111  0.7498 -0.0532  0.0625
  85. (0.00008) RY ( 6) N  5            s(  1.42%)p 1.70(  2.42%)d67.78( 96.17%)
  86. (0.00003) RY ( 7) N  5            s(  0.18%)p 3.78(  0.69%)d99.99( 99.12%)
  87. (0.00001) RY ( 8) N  5            s(  0.16%)p17.85(  2.85%)d99.99( 96.99%)
  88. (0.00001) RY ( 9) N  5            s(  0.19%)p 1.42(  0.27%)d99.99( 99.54%)
  89. (0.00690) RY ( 1) C  6            s( 68.35%)p 0.05(  3.12%)d 0.42( 28.53%)
                                         0.0000 -0.0122  0.8267  0.0454 -0.0518
                                        -0.0371  0.0527 -0.0273 -0.1467  0.1794
                                        -0.2134  0.1222 -0.0486  0.4362
  90. (0.00424) RY ( 2) C  6            s(  0.19%)p99.99( 93.95%)d31.46(  5.86%)
                                         0.0000  0.0246  0.0355  0.0045  0.7912
                                        -0.0002 -0.5531 -0.0129  0.0862  0.0617
                                         0.1452 -0.0422 -0.0327  0.1758
  91. (0.00301) RY ( 3) C  6            s(  0.11%)p89.27(  9.69%)d99.99( 90.20%)
                                         0.0000  0.0012  0.0329 -0.0241 -0.1219
                                        -0.0339 -0.2756 -0.0040  0.0657  0.0117
                                        -0.5574 -0.7635 -0.0222 -0.0881
  92. (0.00146) RY ( 4) C  6            s(  0.68%)p99.99( 97.22%)d 3.07(  2.10%)
                                         0.0000 -0.0217  0.0797  0.0125  0.2317
                                         0.0058  0.4826 -0.0324  0.8273  0.0515
                                        -0.0662 -0.0940 -0.0356  0.0617
  93. (0.00116) RY ( 5) C  6            s(  0.10%)p99.99( 90.04%)d95.42(  9.86%)
                                         0.0000 -0.0122  0.0297 -0.0042 -0.5348
                                        -0.0155 -0.5917 -0.0165  0.5135  0.0640
                                         0.2017  0.1825  0.0001  0.1432
  94. (0.00039) RY ( 6) C  6            s(  0.01%)p 1.00(  5.50%)d17.17( 94.49%)
                                         0.0000  0.0081  0.0038 -0.0072  0.1204
                                         0.0073 -0.1621 -0.0328  0.1143 -0.2143
                                        -0.6707  0.5674  0.1653 -0.3160
  95. (0.00007) RY ( 7) C  6            s( 25.14%)p 0.03(  0.67%)d 2.95( 74.18%)
  96. (0.00001) RY ( 8) C  6            s(  5.24%)p 0.06(  0.30%)d18.04( 94.46%)
  97. (0.00000) RY ( 9) C  6            s(  0.01%)p 1.00(  0.11%)d99.99( 99.88%)
  98. (0.00224) RY ( 1) N  7            s(  3.09%)p28.40( 87.61%)d 3.01(  9.30%)
                                         0.0000  0.0047  0.1756  0.0176 -0.6869
                                         0.0243 -0.6093  0.0041 -0.1794  0.0070
                                        -0.1945 -0.2133  0.0785 -0.0586
[...]
  6 N                34.1      -0.0      -0.0      -0.0      -0.0      -0.0
  7 H                 0.0     -11.2      -2.6      -5.8     -18.3      -8.3
  8 H                 0.0      -1.8     -15.5      -0.7     -20.0      -2.6
  9 H                -0.0     -12.8      -0.9      -5.3     -15.9      -4.2
 10 H                -0.0      -0.0      -0.2       0.4      -0.1      -0.0
 14 H                66.2      -0.0      -0.0      -0.0      -0.0      -0.0

                     48        49        50        51        52        53   
                   0.00000   0.00000   0.00000   0.00000   0.00000   0.00000
                   0.00004   0.00001   0.00001   0.00000   0.00637   0.00468
                  --------  --------  --------  --------  --------  --------
  0 C               116.3     111.8     109.1     109.4      -5.5     -13.5
  1 C                -3.0      -3.3      -0.5      -1.5     174.5     178.8
  2 C                 0.4       0.1      -0.0      -0.0     -14.9     -16.5
  4 N                 0.0       0.2      -0.1      -0.1      -6.4     -31.5
  5 C                -0.0       0.0      -0.1      -0.0     -16.6     -10.9
  6 N                -0.0       0.0      -0.0      -0.0      -1.3      -0.6
  7 H                -0.8      -2.9      -2.6      -1.9      -0.0       0.3
  8 H                -3.4      -4.8      -3.2      -2.5      -0.0       0.1
  9 H                -9.5      -1.1      -2.5      -3.2       0.2      -0.1
 10 H                 0.1       0.1      -0.1       0.0     -30.1      -5.4
 11 H                -0.0      -0.1       0.0      -0.0      -0.2       0.1
 12 H                 0.0       0.0      -0.0      -0.0       0.5      -0.8

                     54        55        56        57        58        59   
                   0.00000   0.00000   0.00000   0.00000   0.00000   0.00000
                   0.00195   0.00120   0.00094   0.00059   0.00036   0.00025
                  --------  --------  --------  --------  --------  --------
  0 C                -6.9     -15.1     -56.4      -2.3      -1.1     -10.6
  1 C               148.2     160.7     172.2     123.4     100.6     127.9
  2 C               -30.8     -36.3      -6.9     -10.6       1.0      -5.6
  3 O                -0.8       0.3      -0.9      -0.2       0.0      -0.1
  4 N                -8.3      -6.7      -5.8      -7.6       2.5      -5.4
  5 C                -0.9      -0.4       0.1      -1.2       0.3      -0.5
  6 N                -0.1      -0.1      -0.1      -0.3       0.0      -0.1
  7 H                -0.0      -0.3       0.6      -0.1       0.1       0.0
  8 H                -0.2       0.3       0.2       0.0      -0.1      -0.1
  9 H                -0.3       0.0       0.2       0.0       0.0       0.3
 10 H                -0.2      -1.5      -3.2      -0.9      -3.4      -5.9
 11 H                 0.4      -0.9       0.2      -0.1      -0.1      -0.0
 12 H                 0.0      -0.1      -0.1      -0.1       0.2       0.1

                     60        61        62        63        64        65   
                   0.00000   0.00000   0.00000   0.00000   0.00000   0.00000
                   0.00006   0.01459   0.00725   0.00353   0.00148   0.00058
                  --------  --------  --------  --------  --------  --------
  0 C               -10.5       0.4      -2.2      -2.6      -0.1      -0.5
  1 C               139.2     -13.7     -42.1      -2.9      -7.4     -57.1
  2 C               -13.8     147.6     155.8     111.8     140.7     167.5
  3 O                 0.1     -32.2      -4.3      -4.8      -4.1      -7.9
  4 N                -7.5      -0.4       0.9      -0.1      -0.6       1.8
  5 C                -0.4       0.0       0.1      -0.1      -0.0       0.1
  7 H                -0.0      -0.5       0.0      -0.1      -0.2      -0.3
  8 H                 0.2      -0.3      -0.1      -0.2      -0.1      -0.1
  9 H                -0.0      -0.0      -0.3      -0.1      -0.0      -0.3
 10 H                -6.4       0.1       0.4       0.0      -0.1       0.1
 11 H                -0.7      -1.0      -8.2      -0.9     -28.2      -3.3

                     66        67        68        69        70        71   
                   0.00000   0.00000   0.00000   0.00000   0.00000   0.00000
                   0.00030   0.00011   0.00003   0.00001   0.00325   0.00015
                  --------  --------  --------  --------  --------  --------
  0 C                 0.0      -0.1      -0.1      -0.1      -0.1      -0.1
  1 C                -5.7      -7.1       1.2      -0.9       1.0      -1.5
  2 C               109.7     116.4     101.8     104.1     -13.3     -20.6
  3 O                -1.5      -2.3      -0.2      -0.6     113.0     123.6
  4 N                -0.0      -0.2      -0.1       0.0      -0.0      -0.0
 10 H                -0.1       0.7      -0.0      -0.2      -0.3      -0.1
 11 H                -2.4      -7.3      -2.6      -2.3      -0.2      -1.1

                     72        73        74        75        76        77   
                   0.00000   0.00000   0.00000   0.00000   0.00000   0.00000
                   0.00012   0.00004   0.00001   0.00000   0.00000   0.00000
                  --------  --------  --------  --------  --------  --------
  0 C                -0.2      -0.2      -0.0      -0.0      -0.0      -0.0
  1 C                -0.0      -1.0      -0.0       0.0      -0.0      -0.1
  2 C                -4.5      -6.3      -3.8      -2.1      -1.2      -3.2
  3 O               105.2     108.4     104.0     102.2     101.3     103.4
  4 N                -0.1      -0.2      -0.0      -0.0      -0.0      -0.0
 11 H                -0.2      -0.5      -0.1      -0.0      -0.0      -0.1

                     78        79        80        81        82        83   
                   0.00000   0.00000   0.00000   0.00000   0.00000   0.00000
                   0.00000   0.00531   0.00311   0.00273   0.00041   0.00021
                  --------  --------  --------  --------  --------  --------
  0 C                -0.0       0.1       1.6      -0.9       0.1      -0.1
  1 C                -0.0      -6.3     -31.0      -5.9     -22.0      -2.0
  2 C                -1.1       0.3       1.6      -0.9       0.5      -0.4
  3 O               101.2      -0.0      -0.0      -0.2      -0.0      -0.1
  4 N                -0.0     126.1     156.3     117.4     156.4     104.1
  5 C                -0.0     -19.5     -26.1      -8.9     -32.9      -1.4
  6 N                -0.0       0.4       0.3      -0.0      -1.0      -0.0
  7 H                -0.0      -0.0      -0.2      -0.0      -0.1      -0.0
  8 H                -0.0      -0.2      -0.3      -0.0      -0.1       0.0
 10 H                -0.0      -0.1      -0.6      -0.1       0.1      -0.1
 11 H                -0.0      -0.3      -0.2      -0.1       0.0       0.0
 12 H                -0.0      -0.5      -1.5      -0.3      -0.6      -0.0
 13 H                -0.0      -0.1       0.0      -0.0      -0.1      -0.0
 14 H                -0.0      -0.0      -0.1      -0.0      -0.2      -0.0

                     84        85        86        87        88        89   
                   0.00000   0.00000   0.00000   0.00000   0.00000   0.00000
                   0.00008   0.00003   0.00001   0.00001   0.00690   0.00424
                  --------  --------  --------  --------  --------  --------
  0 C                 0.1      -0.0      -0.1      -0.2       0.2      -0.1
  1 C                -2.0      -0.3      -1.1      -0.0     -10.9      -1.7
  2 C                 0.0      -0.1      -0.0      -0.1       0.2      -0.2
  4 N               102.5     101.6     104.1     101.6     -32.0     -35.9
  5 C                -0.5      -1.0      -2.6      -1.2     161.9     188.2
  6 N                -0.3      -0.0      -0.1      -0.1     -10.8     -19.1
  9 H                 0.0      -0.0      -0.0       0.0      -0.3      -0.0
 10 H                 0.0      -0.0      -0.0      -0.1       0.1       0.4
 12 H                 0.0       0.0      -0.1      -0.0      -7.8     -29.4
 13 H                -0.0       0.0       0.0      -0.0      -0.4      -1.9
 14 H                -0.0      -0.0      -0.0      -0.0      -0.1      -0.3

                     90        91        92        93        94        95   
                   0.00000   0.00000   0.00000   0.00000   0.00000   0.00000
                   0.00301   0.00146   0.00116   0.00039   0.00007   0.00001
                  --------  --------  --------  --------  --------  --------
  0 C                -0.1       0.2      -0.2      -0.0      -0.1      -0.0
  1 C                -0.4     -14.1      -7.1       0.1       1.5      -0.5
  2 C                 0.1      -0.1       0.2       0.0      -0.1       0.0
  4 N                -2.9      -8.6      -6.0      -2.9      -7.0      -3.1
  5 C               105.4     168.8     134.1     110.7     134.1     111.3
  6 N                -1.5     -40.7     -18.2      -3.9     -13.4      -4.9
  9 H                -0.0      -0.3      -0.0       0.0      -0.0      -0.0
 10 H                -0.0      -0.7      -0.4       0.0       0.1       0.0
 12 H                -0.3      -1.7      -0.7      -4.6     -13.9      -2.3
 13 H                -0.0      -0.9      -0.3      -0.0      -0.9      -0.3
 14 H                -0.2      -1.9      -1.4       0.4      -0.3      -0.2

                     96        97        98        99       100       101   
                   0.00000   0.00000   0.00000   0.00000   0.00000   0.00000
                   0.00000   0.00224   0.00175   0.00079   0.00017   0.00004
                  --------  --------  --------  --------  --------  --------
  1 C                -0.0      -0.2      -0.0      -2.5      -0.0       0.0
  4 N                -0.9      -0.1       0.3       0.1      -0.9       0.4
  5 C               104.1      -4.7     -17.5     -69.5      -1.7      -5.5
  6 N                -0.4     106.9     132.1     175.4     122.8     111.0
 10 H                -0.0      -0.0       0.0      -0.1      -0.0       0.0
 12 H                -2.7       0.0       0.3      -0.8       0.2      -0.1
 13 H                -0.0      -0.7      -5.6      -0.5     -12.8      -3.7
 14 H                -0.0      -1.2      -9.7      -1.7      -7.5      -2.0

                    102       103       104       105       106       107   
                   0.00000   0.00000   0.00000   0.00000   0.00000   0.00000
                   0.00001   0.00000   0.00000   0.00000   0.00237   0.00015
                  --------  --------  --------  --------  --------  --------
  0 C                -0.0      -0.0      -0.0      -0.0     -35.1      -2.9
  1 C                -0.0      -0.0      -0.0      -0.0       0.8      -0.2
  2 C                -0.0      -0.0      -0.0      -0.0      -1.0      -0.0
  3 O                -0.0      -0.0      -0.0      -0.0      -0.1      -0.0
  4 N                 0.0      -0.0      -0.0      -0.0      -0.2      -0.0
  5 C                -3.2      -0.8      -2.2      -0.4      -0.0      -0.0
  6 N               108.1     109.6     104.1     104.8      -0.0      -0.0
  7 H                -0.0      -0.0      -0.0      -0.0     136.9     104.0
  8 H                -0.0      -0.0      -0.0       0.0      -0.5      -0.4
  9 H                -0.0      -0.0      -0.0       0.0      -0.4      -0.3
 10 H                -0.0      -0.0      -0.0      -0.0      -0.5      -0.0
 13 H                -1.5      -5.0      -0.4      -2.5      -0.0      -0.0
 14 H                -3.4      -3.8      -1.4      -1.9      -0.0      -0.0

                    108       109       110       111       112       113   
                   0.00000   0.00000   0.00000   0.00000   0.00000   0.00000
                   0.00011   0.00003   0.00313   0.00015   0.00011   0.00003
                  --------  --------  --------  --------  --------  --------
  0 C                -3.2      -7.7     -35.4      -3.0      -3.1      -7.7
  1 C                -0.2      -0.3       1.3      -0.1      -0.4      -0.1
  2 C                -0.0      -0.0      -0.8      -0.0      -0.1      -0.1
  3 O                -0.0      -0.0      -0.1      -0.0      -0.0      -0.0
  4 N                -0.1      -0.1      -0.4      -0.0      -0.1      -0.0
  7 H               104.3     108.3      -0.4      -0.4      -0.4      -0.1
  8 H                -0.3      -0.1     136.8     104.1     104.5     108.2
  9 H                -0.4      -0.1      -0.4      -0.3      -0.4      -0.1
 11 H                -0.0      -0.0      -0.6      -0.0      -0.0      -0.0

                    114       115       116       117       118       119   
                   0.00000   0.00000   0.00000   0.00000   0.00000   0.00000
                   0.00238   0.00016   0.00013   0.00003   0.00809   0.00012
                  --------  --------  --------  --------  --------  --------
  0 C               -35.5      -2.8      -3.2      -7.9       0.0      -0.2
  1 C                 0.5      -0.2      -0.1      -0.2     -33.2      -2.8
  2 C                -0.5      -0.0      -0.0      -0.1       0.6      -0.2
  3 O                -0.0      -0.0      -0.0      -0.0      -0.4      -0.1
  4 N                 0.1      -0.0      -0.0      -0.0      -0.2      -0.3
  5 C                -0.6      -0.0      -0.0      -0.0      -0.9      -0.0
  7 H                -0.3      -0.3      -0.4      -0.1      -0.4      -0.0
  8 H                -0.3      -0.4      -0.4      -0.1      -0.1      -0.1
  9 H               136.9     104.0     104.2     108.5      -0.2      -0.1
 10 H                -0.2      -0.0      -0.1      -0.0     139.1     103.9
 12 H                -0.0      -0.0      -0.0      -0.0      -4.2      -0.0

                    120       121       122       123       124       125   
                   0.00000   0.00000   0.00000   0.00000   0.00000   0.00000
                   0.00008   0.00003   0.00747   0.00007   0.00007   0.00005
                  --------  --------  --------  --------  --------  --------
  0 C                -0.4       0.0       0.2      -0.0      -0.1      -0.1
  1 C                -3.1      -7.6      -0.9      -0.3       0.0      -0.1
  2 C                -0.3      -0.1     -35.5      -2.9      -8.0      -2.8
  3 O                -0.0      -0.0      -0.7      -1.1      -0.1      -0.6
  4 N                -0.4      -0.5      -0.6      -0.0      -0.0      -0.0
  8 H                -0.0      -0.0      -0.6      -0.0       0.0      -0.0
 10 H               104.4     108.1       0.0      -0.0      -0.0      -0.0
 11 H                -0.0      -0.0     138.2     104.3     108.2     103.7

                    126       127       128       129       130       131   
                   0.00000   0.00000   0.00000   0.00000   0.00000   0.00000
                   0.00661   0.00014   0.00006   0.00002   0.00465   0.00055
                  --------  --------  --------  --------  --------  --------
  1 C                -0.7      -0.0       0.1      -0.1      -0.1      -0.0
  4 N                -2.2      -0.1       0.2      -0.8      -0.0      -0.0
  5 C               -42.5      -2.8      -6.4      -4.4      -4.7      -0.1
  6 N                 0.5      -0.1      -0.9      -0.6     -10.6      -3.3
 10 H                -4.5      -0.0       0.0      -0.1       0.0      -0.0
 12 H               150.3     103.0     107.1     106.1      -0.1      -0.0
 13 H                -0.0      -0.0      -0.0      -0.0     116.9     103.8
 14 H                -0.8      -0.0      -0.0      -0.1      -1.4      -0.2

                    132       133       134       135       136       137   
                   0.00000   0.00000   0.00000   0.00000   0.00000   0.00000
                   0.00024   0.00003   0.00189   0.00071   0.00024   0.00003
                  --------  --------  --------  --------  --------  --------
  1 C                -0.0      -0.0      -0.1      -0.0      -0.0      -0.0
  4 N                -0.0       0.0      -0.2      -0.0      -0.0      -0.0
  5 C                -0.1      -0.0      -4.1      -0.1      -0.1      -0.0
  6 N                -3.0      -5.4      -9.9      -3.4      -3.1      -5.4
 12 H                -0.1      -0.0      -0.7      -0.1      -0.0      -0.1
 13 H               103.8     105.6      -1.3      -0.3      -0.7      -0.2
 14 H                -0.6      -0.2     116.4     103.9     104.0     105.7


Storing NBOs: 5289.nbo
                                    *** NBOs were stored ***

                                *** returned from GENNBO program ***

-------
TIMINGS
-------

Total SCF time: 0 days 0 hours 0 min 5 sec 

Total time                  ....       5.286 sec
Sum of individual times     ....       5.742 sec  (108.6%)

Fock matrix formation       ....       3.380 sec  ( 64.0%)
  Coulomb formation         ....       1.865 sec  ( 55.2% of F)
  Split-RI-J                ....       1.854 sec  ( 54.8% of F)
  XC integration            ....       1.511 sec  ( 44.7% of F)
    Basis function eval.    ....       0.518 sec  ( 34.3% of XC)
    Density eval.           ....       0.278 sec  ( 18.4% of XC)
    XC-Functional eval.     ....       0.100 sec  (  6.6% of XC)
    XC-Potential eval.      ....       0.570 sec  ( 37.7% of XC)
Diagonalization             ....       0.020 sec  (  0.4%)
Density matrix formation    ....       0.003 sec  (  0.1%)
Population analysis         ....       1.315 sec  ( 24.9%)
Initial guess               ....       0.346 sec  (  6.5%)
Orbital Transformation      ....       0.000 sec  (  0.0%)
Orbital Orthonormalization  ....       0.000 sec  (  0.0%)
DIIS solution               ....       0.005 sec  (  0.1%)
SOSCF solution              ....       0.013 sec  (  0.3%)
Grid generation             ....       0.659 sec  ( 12.5%)
           ************************************************************
           *              Shut down parallel processing               *
           ************************************************************

-------------------------   --------------------
FINAL SINGLE POINT ENERGY      -341.283006503211
-------------------------   --------------------


                            ***************************************
                            *     ORCA property calculations      *
                            ***************************************

                                    ---------------------
                                    Active property flags
                                    ---------------------
   (+) Dipole Moment


------------------------------------------------------------------------------
                       ORCA ELECTRIC PROPERTIES CALCULATION
------------------------------------------------------------------------------

Dipole Moment Calculation                       ... on
Quadrupole Moment Calculation                   ... off
Polarizability Calculation                      ... off
GBWName                                         ... 5289.gbw
Electron density file                           ... 5289.scfp.tmp

-------------
DIPOLE MOMENT
-------------
                                X             Y             Z
Electronic contribution:      2.75963       3.27569      -0.00024
Nuclear contribution   :     -3.36954      -4.05478       1.43432
                        -----------------------------------------
Total Dipole Moment    :     -0.60991      -0.77909       1.43408
                        -----------------------------------------
Magnitude (a.u.)       :      1.74228
Magnitude (Debye)      :      4.42853


Timings for individual modules:

Sum of individual times         ...        6.424 sec (=   0.107 min)
GTO integral calculation        ...        0.464 sec (=   0.008 min)   7.2 %
SCF iterations                  ...        5.960 sec (=   0.099 min)  92.8 %
                             ****ORCA TERMINATED NORMALLY****
TOTAL RUN TIME: 0 days 0 hours 0 minutes 6 seconds 814 msec
