
                                 *****************
                                 * O   R   C   A *
                                 *****************

           --- An Ab Initio, DFT and Semiempirical electronic structure package ---

                  #######################################################
                  #                        -***-                        #
                  #  Department of molecular theory and spectroscopy    #
                  #              Directorship: Frank Neese              #
                  # Max Planck Institute for Chemical Energy Conversion #
                  #                  D-45470 Muelheim/Ruhr              #
                  #                       Germany                       #
                  #                                                     #
                  #                  All rights reserved                #
                  #                        -***-                        #
                  #######################################################


                         Program Version 3.0.3 - RELEASE   -


 With contributions from (in alphabetic order):
   Ute Becker             : Parallelization
   Dmytro Bykov           : SCF Hessian
   Dmitry Ganyushin       : Spin-Orbit,Spin-Spin,Magnetic field MRCI
   Andreas Hansen         : Spin unrestricted coupled pair/coupled cluster methods
   Dimitrios Liakos       : Extrapolation schemes; parallel MDCI
   Robert Izsak           : Overlap fitted RIJCOSX, COSX-SCS-MP3
   Christian Kollmar      : KDIIS, OOCD, Brueckner-CCSD(T), CCSD density
   Simone Kossmann        : Meta GGA functionals, TD-DFT gradient, OOMP2, MP2 Hessian
   Taras Petrenko         : DFT Hessian,TD-DFT gradient, ASA and ECA modules, normal mode analysis, Resonance Raman, ABS, FL, XAS/XES, NRVS
   Christoph Reimann      : Effective Core Potentials
   Michael Roemelt        : Restricted open shell CIS
   Christoph Riplinger    : Improved optimizer, TS searches, QM/MM, DLPNO-CCSD
   Barbara Sandhoefer     : DKH picture change effects
   Igor Schapiro          : Molecular dynamics
   Kantharuban Sivalingam : CASSCF convergence, NEVPT2
   Boris Wezisla          : Elementary symmetry handling
   Frank Wennmohs         : Technical directorship


 We gratefully acknowledge several colleagues who have allowed us to
 interface, adapt or use parts of their codes:
   Stefan Grimme, W. Hujo, H. Kruse, T. Risthaus : VdW corrections, initial TS optimization,
                                                   DFT functionals, gCP
   Ed Valeev                                     : LibInt (2-el integral package), F12 methods
   Garnet Chan, S. Sharma, R. Olivares           : DMRG
   Ulf Ekstrom                                   : XCFun DFT Library
   Mihaly Kallay                                 : mrcc  (arbitrary order and MRCC methods)
   Andreas Klamt, Michael Diedenhofen            : otool_cosmo (COSMO solvation model)
   Frank Weinhold                                : gennbo (NPA and NBO analysis)
   Christopher J. Cramer and Donald G. Truhlar   : smd solvation model


 Your calculation uses the libint2 library for the computation of 2-el integrals
 For citations please refer to: http://libint.valeyev.net

 This ORCA versions uses:
   CBLAS   interface :  Fast vector & matrix operations
   LAPACKE interface :  Fast linear algebra routines
   SCALAPACK package :  Parallel linear algebra routines


Your calculation utilizes the basis: Ahlrichs-VDZ
Cite in your paper:
H - Kr: A. Schaefer, H. Horn and R. Ahlrichs, J. Chem. Phys. 97, 2571 (1992).

Your calculation utilizes the basis: Ahlrichs SVPalls1+f
Cite in your paper:
Rb - Xe: A. Schaefer, C. Huber and R. Ahlrichs, J. Chem. Phys. 100, 5829 (1994).

================================================================================
                                        WARNINGS
                       Please study these warnings very carefully!
================================================================================
Now building the actual basis set


INFO   : the flag for use of LIBINT has been found!

================================================================================
                                       INPUT FILE
================================================================================
NAME = 5367.inp
|  1> ! RI PBE def2-SVP def2-SVP/J NBO PAL2
|  2> % maxcore 2000
|  3> % output
|  4>     # printlevel mini
|  5>     print[ P_Basis ] 0
|  6>     print[ P_SCFInfo ] 1
|  7>     print[ P_SCFIterInfo ] 1
|  8>     print[ P_OrbEn ] 0
|  9>     print[ P_Cartesian ] 0
| 10> end
| 11> *xyz 0 1
| 12>  C        1.0542430000    -0.0387460000     0.1056400000 
| 13>  C        2.3767930000    -0.1647680000     0.0415390000 
| 14>  N        3.2451860000     0.8271120000    -0.3584740000 
| 15>  C        4.6020660000     0.7354750000    -0.4365240000 
| 16>  N        5.4028040000    -0.2225900000    -0.1810520000 
| 17>  C        5.2378650000     2.0090300000    -0.9121560000 
| 18>  O        4.6032560000     2.9913530000    -1.1891430000 
| 19>  H        0.4472220000    -0.8708120000     0.4313680000 
| 20>  H        0.5490930000     0.8827330000    -0.1606970000 
| 21>  H        2.8541380000    -1.0992720000     0.3144480000 
| 22>  H        2.8758890000     1.7294230000    -0.6297790000 
| 23>  H        4.9338180000    -1.0674820000     0.1383710000 
| 24>  H        6.3376370000     1.9534530000    -0.9818510000 
| 25> *
| 26> 
| 27>                          ****END OF INPUT****
================================================================================

                       ****************************
                       * Single Point Calculation *
                       ****************************

--------------------------------
INTERNAL COORDINATES (ANGSTROEM)
--------------------------------
 C      0   0   0   0.000000     0.000     0.000
 C      1   0   0   1.330086     0.000     0.000
 N      2   1   0   1.377658   124.928     0.000
 C      3   2   1   1.362209   126.589   179.987
 N      4   3   2   1.274494   131.675     0.000
 C      4   3   2   1.500803   112.523   179.985
 O      6   4   3   1.201836   122.884     0.000
 H      1   2   3   1.080235   120.020   179.995
 H      1   2   3   1.084083   122.142     0.000
 H      2   1   3   1.084267   120.483   180.003
 H      3   2   1   1.012004   119.325   359.976
 H      5   4   3   1.017753   113.418     0.000
 H      6   4   3   1.103379   113.549   180.011

---------------------------
INTERNAL COORDINATES (A.U.)
---------------------------
 C      0   0   0   0.000000     0.000     0.000
 C      1   0   0   2.513498     0.000     0.000
 N      2   1   0   2.603397   124.928     0.000
 C      3   2   1   2.574201   126.589   179.987
 N      4   3   2   2.408445   131.675     0.000
 C      4   3   2   2.836106   112.523   179.985
 O      6   4   3   2.271140   122.884     0.000
 H      1   2   3   2.041348   120.020   179.995
 H      1   2   3   2.048620   122.142     0.000
 H      2   1   3   2.048968   120.483   180.003
 H      3   2   1   1.912410   119.325   359.976
 H      5   4   3   1.923275   113.418     0.000
 H      6   4   3   2.085084   113.549   180.011



           ************************************************************
           *        Program running with 2 parallel MPI-processes     *
           *              working on a common directory               *
           ************************************************************
------------------------------------------------------------------------------
                           ORCA GTO INTEGRAL CALCULATION
                           -- RI-GTO INTEGRALS CHOSEN --
------------------------------------------------------------------------------

                         BASIS SET STATISTICS AND STARTUP INFO

Gaussian basis set:
 # of primitive gaussian shells          ...  114
 # of primitive gaussian functions       ...  210
 # of contracted shells                  ...   60
 # of contracted basis functions         ...  128
 Highest angular momentum                ...    2
 Maximum contraction depth               ...    5
Auxiliary gaussian basis set:
 # of primitive gaussian shells          ...  216
 # of primitive gaussian functions       ...  586
 # of contracted shells                  ...  135
 # of contracted aux-basis functions     ...  409
 Highest angular momentum                ...    4
 Maximum contraction depth               ...    7
Ratio of auxiliary to basis functions    ...  3.20
Integral package used                  ... LIBINT
 One Electron integrals                  ... done
 Ordering auxiliary basis shells         ... done
 Integral threshhold             Thresh  ...  1.000e-10
 Primitive cut-off               TCut    ...  1.000e-11
 Pre-screening matrix                    ... done
 Shell pair data                         ... 
 Ordering of the shell pairs             ... done (   0.000 sec) 1717 of 1830 pairs
 Determination of significant pairs      ... done (   0.000 sec)
 Creation of shell pair data             ... done (   0.000 sec)
 Storage of shell pair data              ... done (   0.000 sec)
 Shell pair data done in (   0.001 sec)
 Computing two index integrals           ... done
 Cholesky decomposition of the V-matrix  ... done


Timings:
 Total evaluation time                   ...   0.147 sec (  0.002 min)
 One electron matrix time                ...   0.014 sec (  0.000 min) =  9.8%
 Schwartz matrix evaluation time         ...   0.070 sec (  0.001 min) = 47.3%
 Two index repulsion integral time       ...   0.003 sec (  0.000 min) =  2.2%
 Cholesky decomposition of V             ...   0.003 sec (  0.000 min) =  1.9%
 Three index repulsion integral time     ...   0.000 sec (  0.000 min) =  0.0%

           ************************************************************
           *              Shut down parallel processing               *
           ************************************************************


           ************************************************************
           *        Program running with 2 parallel MPI-processes     *
           *              working on a common directory               *
           ************************************************************
-------------------------------------------------------------------------------
                                 ORCA SCF
-------------------------------------------------------------------------------

------------
SCF SETTINGS
------------
Hamiltonian:
 Density Functional     Method          .... DFT(GTOs)
 Exchange Functional    Exchange        .... PBE
   PBE kappa parameter  XKappa          ....  0.804000
 Correlation Functional Correlation     .... PBE
 LDA part of GGA corr.  LDAOpt          .... PW91-LDA
 Gradients option       PostSCFGGA      .... off
   NL short-range parameter             ....  6.400000
 RI-approximation to the Coulomb term is turned on
   Number of auxiliary basis functions  .... 409


General Settings:
 Integral files         IntName         .... 5367
 Hartree-Fock type      HFTyp           .... RHF
 Total Charge           Charge          ....    0
 Multiplicity           Mult            ....    1
 Number of Electrons    NEL             ....   52
 Basis Dimension        Dim             ....  128
 Nuclear Repulsion      ENuc            ....    276.4022874459 Eh

Convergence Acceleration:
 DIIS                   CNVDIIS         .... on
   Start iteration      DIISMaxIt       ....    12
   Startup error        DIISStart       ....  0.200000
   # of expansion vecs  DIISMaxEq       ....     5
   Bias factor          DIISBfac        ....   1.050
   Max. coefficient     DIISMaxC        ....  10.000
 Newton-Raphson         CNVNR           .... off
 SOSCF                  CNVSOSCF        .... on
   Start iteration      SOSCFMaxIt      ....   150
   Startup grad/error   SOSCFStart      ....  0.003300
 Level Shifting         CNVShift        .... on
   Level shift para.    LevelShift      ....    0.2500
   Turn off err/grad.   ShiftErr        ....    0.0010
 Zerner damping         CNVZerner       .... off
 Static damping         CNVDamp         .... on
   Fraction old density DampFac         ....    0.7000
   Max. Damping (<1)    DampMax         ....    0.9800
   Min. Damping (>=0)   DampMin         ....    0.0000
   Turn off err/grad.   DampErr         ....    0.1000
 Fernandez-Rico         CNVRico         .... off

SCF Procedure:
 Maximum # iterations   MaxIter         ....   125
 SCF integral mode      SCFMode         .... Direct
   Integral package                     .... LIBINT
 Reset frequeny         DirectResetFreq ....    20
 Integral Threshold     Thresh          ....  1.000e-10 Eh
 Primitive CutOff       TCut            ....  1.000e-11 Eh

Convergence Tolerance:
 Convergence Check Mode ConvCheckMode   .... Total+1el-Energy
 Energy Change          TolE            ....  1.000e-06 Eh
 1-El. energy change                    ....  1.000e-03 Eh
 Orbital Gradient       TolG            ....  5.000e-05
 Orbital Rotation angle TolX            ....  5.000e-05
 DIIS Error             TolErr          ....  1.000e-06


Diagonalization of the overlap matrix:
Smallest eigenvalue                        ... 1.706e-03
Time for diagonalization                   ...    0.009 sec
Threshold for overlap eigenvalues          ... 1.000e-08
Number of eigenvalues below threshold      ... 0
Time for construction of square roots      ...    0.003 sec
Total time needed                          ...    0.012 sec

-------------------
DFT GRID GENERATION
-------------------

General Integration Accuracy     IntAcc      ...  4.340
Radial Grid Type                 RadialGrid  ... Gauss-Chebyshev
Angular Grid (max. acc.)         AngularGrid ... Lebedev-110
Angular grid pruning method      GridPruning ... 3 (G Style)
Weight generation scheme         WeightScheme... Becke
Basis function cutoff            BFCut       ...    1.0000e-10
Integration weight cutoff        WCut        ...    1.0000e-14
Grids for H and He will be reduced by one unit

# of grid points (after initial pruning)     ...  16508 (   0.0 sec)
# of grid points (after weights+screening)   ...  15576 (   0.0 sec)
nearest neighbour list constructed           ...    0.0 sec
Grid point re-assignment to atoms done       ...    0.0 sec
Grid point division into batches done        ...    0.0 sec
Reduced shell lists constructed in    0.1 sec

Total number of grid points                  ...    15576
Total number of batches                      ...      249
Average number of points per batch           ...       62
Average number of grid points per atom       ...     1198
Average number of shells per batch           ...    46.14 (76.90%)
Average number of basis functions per batch  ...    98.25 (76.76%)
Average number of large shells per batch     ...    37.96 (82.27%)
Average number of large basis fcns per batch ...    79.09 (80.49%)
Maximum spatial batch extension              ...  19.23, 15.83, 19.48 au
Average spatial batch extension              ...   1.36,  1.44,  1.87 au

Time for grid setup =    0.120 sec

------------------------------
INITIAL GUESS: MODEL POTENTIAL
------------------------------
Loading Hartree-Fock densities                     ... done
Calculating cut-offs                               ... done
Setting up the integral package                    ... done
Initializing the effective Hamiltonian             ... done
Starting the Coulomb interaction                   ... done (   0.0 sec)
Reading the grid                                   ... done
Mapping shells                                     ... done
Starting the XC term evaluation                    ... done (   0.1 sec)
  promolecular density results
     # of electrons  =     52.003760156
     EX              =    -43.428970677
     EC              =     -1.716464423
     EX+EC           =    -45.145435100
Transforming the Hamiltonian                       ... done (   0.0 sec)
Diagonalizing the Hamiltonian                      ... done (   0.0 sec)
Back transforming the eigenvectors                 ... done (   0.0 sec)
Now organizing SCF variables                       ... done
                      ------------------
                      INITIAL GUESS DONE (   0.3 sec)
                      ------------------
--------------
SCF ITERATIONS
--------------
ITER       Energy         Delta-E        Max-DP      RMS-DP      [F,P]     Damp
               ***  Starting incremental Fock matrix formation  ***
  0   -339.8626777036   0.000000000000 0.09685672  0.00372848  0.2305767 0.7000
  1   -339.9730154498  -0.110337746193 0.05832417  0.00228017  0.0818022 0.7000
                               ***Turning on DIIS***
  2   -340.0034723584  -0.030456908605 0.05620796  0.00290223  0.0296981 0.0000
  3   -340.0631283975  -0.059656039131 0.04749581  0.00170488  0.0501635 0.0000
  4   -340.0732830796  -0.010154682026 0.01688330  0.00056368  0.0268780 0.0000
  5   -340.0758076835  -0.002524603921 0.00346127  0.00016526  0.0049604 0.0000
  6   -340.0758932532  -0.000085569750 0.00230963  0.00006790  0.0039107 0.0000
                      *** Initiating the SOSCF procedure ***
                           *** Shutting down DIIS ***
                      *** Re-Reading the Fockian *** 
                      *** Removing any level shift *** 
ITER      Energy       Delta-E        Grad      Rot      Max-DP    RMS-DP
  7   -340.07591466  -0.0000214112  0.000219  0.000219  0.000693  0.000036
               *** Restarting incremental Fock matrix formation ***
  8   -340.07591512  -0.0000004526  0.000240  0.002471  0.001821  0.000053
  9   -340.07590570   0.0000094213  0.000809  0.002033  0.001666  0.000041
 10   -340.07591616  -0.0000104643  0.000156  0.000733  0.000536  0.000023
 11   -340.07591494   0.0000012179  0.000301  0.000489  0.000438  0.000016
 12   -340.07591645  -0.0000015116  0.000061  0.000200  0.000282  0.000007
 13   -340.07591627   0.0000001823  0.000151  0.000148  0.000194  0.000005
                 **** Energy Check signals convergence ****
              ***Rediagonalizing the Fockian in SOSCF/NRSCF***

               *****************************************************
               *                     SUCCESS                       *
               *           SCF CONVERGED AFTER  14 CYCLES          *
               *****************************************************

Setting up the final grid:

General Integration Accuracy     IntAcc      ...  4.670
Radial Grid Type                 RadialGrid  ... Gauss-Chebyshev
Angular Grid (max. acc.)         AngularGrid ... Lebedev-302
Angular grid pruning method      GridPruning ... 3 (G Style)
Weight generation scheme         WeightScheme... Becke
Basis function cutoff            BFCut       ...    1.0000e-10
Integration weight cutoff        WCut        ...    1.0000e-14
Grids for H and He will be reduced by one unit

# of grid points (after initial pruning)     ...  63848 (   0.0 sec)
# of grid points (after weights+screening)   ...  59567 (   0.1 sec)
nearest neighbour list constructed           ...    0.0 sec
Grid point re-assignment to atoms done       ...    0.0 sec
Grid point division into batches done        ...    0.2 sec
Reduced shell lists constructed in    0.4 sec

Total number of grid points                  ...    59567
Total number of batches                      ...      937
Average number of points per batch           ...       63
Average number of grid points per atom       ...     4582
Average number of shells per batch           ...    43.00 (71.66%)
Average number of basis functions per batch  ...    90.75 (70.90%)
Average number of large shells per batch     ...    34.36 (79.90%)
Average number of large basis fcns per batch ...    71.28 (78.55%)
Maximum spatial batch extension              ...  16.13, 24.82, 20.56 au
Average spatial batch extension              ...   0.96,  1.00,  1.18 au

Final grid set up in    0.5 sec
Final integration                            ... done (   0.3 sec)
Change in XC energy                          ...     0.000810538
Integrated number of electrons               ...    51.999975009
Previous integrated no of electrons          ...    52.001140182

----------------
TOTAL SCF ENERGY
----------------

Total Energy       :         -340.07510595 Eh           -9253.91409 eV

Components:
Nuclear Repulsion  :          276.40228745 Eh            7521.28862 eV
Electronic Energy  :         -616.47739339 Eh          -16775.20271 eV

One Electron Energy:        -1008.31116955 Eh          -27437.54182 eV
Two Electron Energy:          391.83377615 Eh           10662.33911 eV

Virial components:
Potential Energy   :         -677.31145133 Eh          -18430.58158 eV
Kinetic Energy     :          337.23634538 Eh            9176.66749 eV
Virial Ratio       :            2.00841772


DFT components:
N(Alpha)           :       25.999987504385 electrons
N(Beta)            :       25.999987504385 electrons
N(Total)           :       51.999975008770 electrons
E(X)               :      -44.154010578125 Eh       
E(C)               :       -1.735373311634 Eh       
E(XC)              :      -45.889383889759 Eh       

---------------
SCF CONVERGENCE
---------------

  Last Energy change         ...   -2.1576e-07  Tolerance :   1.0000e-06
  Last MAX-Density change    ...    5.1881e-05  Tolerance :   1.0000e-05
  Last RMS-Density change    ...    1.8441e-06  Tolerance :   1.0000e-06
  Last Orbital Gradient      ...    8.7323e-06  Tolerance :   5.0000e-05
  Last Orbital Rotation      ...    3.8093e-05  Tolerance :   5.0000e-05

             **** THE GBW FILE WAS UPDATED (5367.gbw) ****
             **** DENSITY FILE WAS UPDATED (5367.scfp.tmp) ****
             **** ENERGY FILE WAS UPDATED (5367.en.tmp) ****

                    ********************************
                    * MULLIKEN POPULATION ANALYSIS *
                    ********************************

-----------------------
MULLIKEN ATOMIC CHARGES
-----------------------
   0 C :   -0.070472
   1 C :    0.035516
   2 N :    0.000504
   3 C :   -0.199550
   4 N :   -0.067972
   5 C :    0.186813
   6 O :   -0.149056
   7 H :    0.035750
   8 H :    0.025570
   9 H :    0.000279
  10 H :    0.111233
  11 H :    0.088234
  12 H :    0.003151
Sum of atomic charges:   -0.0000000

--------------------------------
MULLIKEN REDUCED ORBITAL CHARGES
--------------------------------
  0 C s       :     3.105187  s :     3.105187
      pz      :     1.058043  p :     2.942884
      px      :     0.962600
      py      :     0.922241
      dz2     :     0.001395  d :     0.022401
      dxz     :     0.005350
      dyz     :     0.000794
      dx2y2   :     0.006631
      dxy     :     0.008231
  1 C s       :     3.072840  s :     3.072840
      pz      :     0.995360  p :     2.841505
      px      :     0.942732
      py      :     0.903413
      dz2     :     0.004477  d :     0.050139
      dxz     :     0.012288
      dyz     :     0.004920
      dx2y2   :     0.010441
      dxy     :     0.018013
  2 N s       :     3.281889  s :     3.281889
      pz      :     1.526348  p :     3.695890
      px      :     1.071784
      py      :     1.097758
      dz2     :     0.002162  d :     0.021717
      dxz     :     0.004669
      dyz     :     0.002012
      dx2y2   :     0.006984
      dxy     :     0.005890
  3 C s       :     3.074037  s :     3.074037
      pz      :     0.978530  p :     3.043433
      px      :     1.029574
      py      :     1.035330
      dz2     :     0.005648  d :     0.082080
      dxz     :     0.018502
      dyz     :     0.008772
      dx2y2   :     0.028990
      dxy     :     0.020168
  4 N s       :     3.463437  s :     3.463437
      pz      :     1.178331  p :     3.581959
      px      :     1.425175
      py      :     0.978453
      dz2     :     0.002366  d :     0.022576
      dxz     :     0.004477
      dyz     :     0.002273
      dx2y2   :     0.003936
      dxy     :     0.009524
  5 C s       :     3.179847  s :     3.179847
      pz      :     0.772916  p :     2.552208
      px      :     0.904459
      py      :     0.874833
      dz2     :     0.006163  d :     0.081133
      dxz     :     0.006143
      dyz     :     0.014557
      dx2y2   :     0.033275
      dxy     :     0.020995
  6 O s       :     3.744901  s :     3.744901
      pz      :     1.307928  p :     4.385928
      px      :     1.628669
      py      :     1.449331
      dz2     :     0.002259  d :     0.018226
      dxz     :     0.001807
      dyz     :     0.004229
      dx2y2   :     0.004632
      dxy     :     0.005300
  7 H s       :     0.939348  s :     0.939348
      pz      :     0.006859  p :     0.024902
      px      :     0.007691
      py      :     0.010352
  8 H s       :     0.949847  s :     0.949847
      pz      :     0.006292  p :     0.024583
      px      :     0.006868
      py      :     0.011423
  9 H s       :     0.976691  s :     0.976691
      pz      :     0.005704  p :     0.023030
      px      :     0.005689
      py      :     0.011637
 10 H s       :     0.842415  s :     0.842415
      pz      :     0.012400  p :     0.046352
      px      :     0.009761
      py      :     0.024191
 11 H s       :     0.865698  s :     0.865698
      pz      :     0.011146  p :     0.046068
      px      :     0.015089
      py      :     0.019833
 12 H s       :     0.977201  s :     0.977201
      pz      :     0.002391  p :     0.019649
      px      :     0.014977
      py      :     0.002280


                     *******************************
                     * LOEWDIN POPULATION ANALYSIS *
                     *******************************

----------------------
LOEWDIN ATOMIC CHARGES
----------------------
   0 C :   -0.104114
   1 C :    0.009375
   2 N :    0.048856
   3 C :   -0.046577
   4 N :   -0.121744
   5 C :    0.096627
   6 O :   -0.096123
   7 H :    0.033897
   8 H :    0.026051
   9 H :    0.023112
  10 H :    0.078293
  11 H :    0.044949
  12 H :    0.007399

-------------------------------
LOEWDIN REDUCED ORBITAL CHARGES
-------------------------------
  0 C s       :     2.877518  s :     2.877518
      pz      :     1.054295  p :     3.161690
      px      :     1.060127
      py      :     1.047268
      dz2     :     0.004237  d :     0.064906
      dxz     :     0.011955
      dyz     :     0.002299
      dx2y2   :     0.020773
      dxy     :     0.025643
  1 C s       :     2.847429  s :     2.847429
      pz      :     0.981314  p :     3.016477
      px      :     1.054685
      py      :     0.980478
      dz2     :     0.010257  d :     0.126718
      dxz     :     0.028437
      dyz     :     0.010734
      dx2y2   :     0.028662
      dxy     :     0.048627
  2 N s       :     3.031850  s :     3.031850
      pz      :     1.487838  p :     3.859591
      px      :     1.165072
      py      :     1.206682
      dz2     :     0.004599  d :     0.059703
      dxz     :     0.010065
      dyz     :     0.004624
      dx2y2   :     0.021469
      dxy     :     0.018947
  3 C s       :     2.844133  s :     2.844133
      pz      :     0.955381  p :     3.001693
      px      :     0.991729
      py      :     1.054584
      dz2     :     0.013993  d :     0.200751
      dxz     :     0.039999
      dyz     :     0.019039
      dx2y2   :     0.072990
      dxy     :     0.054730
  4 N s       :     3.246927  s :     3.246927
      pz      :     1.186280  p :     3.826886
      px      :     1.515694
      py      :     1.124912
      dz2     :     0.005318  d :     0.047931
      dxz     :     0.006158
      dyz     :     0.006013
      dx2y2   :     0.008461
      dxy     :     0.021981
  5 C s       :     2.907919  s :     2.907919
      pz      :     0.778277  p :     2.796879
      px      :     1.036654
      py      :     0.981949
      dz2     :     0.014746  d :     0.198575
      dxz     :     0.011724
      dyz     :     0.031603
      dx2y2   :     0.083614
      dxy     :     0.056888
  6 O s       :     3.546701  s :     3.546701
      pz      :     1.304847  p :     4.517745
      px      :     1.682507
      py      :     1.530391
      dz2     :     0.004083  d :     0.031678
      dxz     :     0.002559
      dyz     :     0.006085
      dx2y2   :     0.008170
      dxy     :     0.010782
  7 H s       :     0.894416  s :     0.894416
      pz      :     0.020503  p :     0.071688
      px      :     0.020134
      py      :     0.031051
  8 H s       :     0.902837  s :     0.902837
      pz      :     0.018819  p :     0.071112
      px      :     0.017932
      py      :     0.034361
  9 H s       :     0.906902  s :     0.906902
      pz      :     0.016425  p :     0.069986
      px      :     0.017762
      py      :     0.035799
 10 H s       :     0.792395  s :     0.792395
      pz      :     0.038487  p :     0.129312
      px      :     0.023754
      py      :     0.067071
 11 H s       :     0.828027  s :     0.828027
      pz      :     0.029687  p :     0.127024
      px      :     0.046058
      py      :     0.051278
 12 H s       :     0.924083  s :     0.924083
      pz      :     0.008279  p :     0.068519
      px      :     0.051539
      py      :     0.008701


                      *****************************
                      * MAYER POPULATION ANALYSIS *
                      *****************************

  NA   - Mulliken gross atomic population
  ZA   - Total nuclear charge
  QA   - Mulliken gross atomic charge
  VA   - Mayer's total valence
  BVA  - Mayer's bonded valence
  FA   - Mayer's free valence

  ATOM       NA         ZA         QA         VA         BVA        FA
  0 C      6.0705     6.0000    -0.0705     3.9355     3.9355    -0.0000
  1 C      5.9645     6.0000     0.0355     4.1033     4.1033     0.0000
  2 N      6.9995     7.0000     0.0005     3.3344     3.3344     0.0000
  3 C      6.1995     6.0000    -0.1995     4.2121     4.2121    -0.0000
  4 N      7.0680     7.0000    -0.0680     3.1684     3.1684    -0.0000
  5 C      5.8132     6.0000     0.1868     3.9706     3.9706    -0.0000
  6 O      8.1491     8.0000    -0.1491     2.3237     2.3237     0.0000
  7 H      0.9642     1.0000     0.0358     0.9808     0.9808    -0.0000
  8 H      0.9744     1.0000     0.0256     0.9882     0.9882    -0.0000
  9 H      0.9997     1.0000     0.0003     1.0077     1.0077     0.0000
 10 H      0.8888     1.0000     0.1112     1.0459     1.0459     0.0000
 11 H      0.9118     1.0000     0.0882     1.0198     1.0198    -0.0000
 12 H      0.9968     1.0000     0.0032     1.0061     1.0061    -0.0000

  Mayer bond orders larger than 0.1
B(  0-C ,  1-C ) :   1.9059 B(  0-C ,  7-H ) :   0.9390 B(  0-C ,  8-H ) :   0.9525 
B(  1-C ,  2-N ) :   1.1334 B(  1-C ,  9-H ) :   0.9414 B(  2-N ,  3-C ) :   1.1973 
B(  2-N ,  4-N ) :   0.1057 B(  2-N , 10-H ) :   0.8755 B(  3-C ,  4-N ) :   1.9563 
B(  3-C ,  5-C ) :   0.9148 B(  4-N , 11-H ) :   0.9410 B(  5-C ,  6-O ) :   2.1438 
B(  5-C , 12-H ) :   0.9276 


 *********************************** NBO 6.0 ***********************************
             N A T U R A L   A T O M I C   O R B I T A L   A N D
          N A T U R A L   B O N D   O R B I T A L   A N A L Y S I S
 ***************************** Kiya KiyaLu (100703) ****************************
  (c) Copyright 1996-2015 Board of Regents of the University of Wisconsin System
      on behalf of the Theoretical Chemistry Institute.  All rights reserved.

          Cite this program as:

          NBO 6.0.  E. D. Glendening, J. K. Badenhoop, A. E. Reed,
          J. E. Carpenter, J. A. Bohmann, C. M. Morales, C. R. Landis,
          and F. Weinhold (Theoretical Chemistry Institute, University
          of Wisconsin, Madison, WI, 2013); http://nbo6.chem.wisc.edu/

       /NPA    / : Natural Population Analysis
       /NBO    / : Natural Bond Orbital Analysis
       /AONBO  / : Write the AO to NBO transformation to lfn77
       /FILE   / : Set to 5367

 Filename set to 5367

 Job title:  *** NBO job generated by orca_scf

 Warning: MOs are non-orthogonal; program will continue

 Warning: -1518.97195 electrons reside outside the linearly independent MO space


 NATURAL POPULATIONS:  Natural atomic orbital occupancies

  NAO Atom No lang   Type(AO)    Occupancy      Energy
 -------------------------------------------------------
   1    C  1  s      Cor( 1s)     1.99903      -9.77682
   2    C  1  s      Val( 2s)     1.04244      -0.18622
   3    C  1  s      Ryd( 3s)     0.00080       0.52199
   4    C  1  px     Val( 2p)     1.11808      -0.04476
   5    C  1  px     Ryd( 3p)     0.00237       0.47476
   6    C  1  py     Val( 2p)     1.19607      -0.05076
   7    C  1  py     Ryd( 3p)     0.00311       0.78659
   8    C  1  pz     Val( 2p)     1.10168      -0.11453
   9    C  1  pz     Ryd( 3p)     0.00235       0.51613
  10    C  1  dxy    Ryd( 3d)     0.00051       2.38314
  11    C  1  dxz    Ryd( 3d)     0.00060       1.94993
  12    C  1  dyz    Ryd( 3d)     0.00019       1.93128
  13    C  1  dx2y2  Ryd( 3d)     0.00065       2.29785
  14    C  1  dz2    Ryd( 3d)     0.00040       2.03674

  15    C  2  s      Cor( 1s)     1.99895      -9.82423
  16    C  2  s      Val( 2s)     0.90669      -0.15243
  17    C  2  s      Ryd( 3s)     0.00246       0.44370
  18    C  2  px     Val( 2p)     1.06043      -0.06130
  19    C  2  px     Ryd( 3p)     0.00578       0.68068
  20    C  2  py     Val( 2p)     1.02689      -0.05918
  21    C  2  py     Ryd( 3p)     0.00278       0.74599
  22    C  2  pz     Val( 2p)     1.00898      -0.12515
  23    C  2  pz     Ryd( 3p)     0.00141       0.50772
  24    C  2  dxy    Ryd( 3d)     0.00134       2.34590
  25    C  2  dxz    Ryd( 3d)     0.00121       1.92892
  26    C  2  dyz    Ryd( 3d)     0.00054       1.93423
  27    C  2  dx2y2  Ryd( 3d)     0.00070       2.35105
  28    C  2  dz2    Ryd( 3d)     0.00065       2.04127

  29    N  3  s      Cor( 1s)     1.99906     -13.89199
  30    N  3  s      Val( 2s)     1.22290      -0.47805
  31    N  3  s      Ryd( 3s)     0.00177       1.06305
  32    N  3  px     Val( 2p)     1.34409      -0.25360
  33    N  3  px     Ryd( 3p)     0.00195       1.13417
  34    N  3  py     Val( 2p)     1.42549      -0.24716
  35    N  3  py     Ryd( 3p)     0.00219       1.19833
  36    N  3  pz     Val( 2p)     1.60223      -0.24049
  37    N  3  pz     Ryd( 3p)     0.00223       0.83172
  38    N  3  dxy    Ryd( 3d)     0.00062       2.68075
  39    N  3  dxz    Ryd( 3d)     0.00055       2.26449
  40    N  3  dyz    Ryd( 3d)     0.00036       2.34163
  41    N  3  dx2y2  Ryd( 3d)     0.00075       2.71420
  42    N  3  dz2    Ryd( 3d)     0.00055       2.42824

  43    C  4  s      Cor( 1s)     1.99912      -9.85529
  44    C  4  s      Val( 2s)     0.79662      -0.12741
  45    C  4  s      Ryd( 3s)     0.00294       0.38982
  46    C  4  px     Val( 2p)     0.87684      -0.02009
  47    C  4  px     Ryd( 3p)     0.01070       0.66610
  48    C  4  py     Val( 2p)     1.00181      -0.08620
  49    C  4  py     Ryd( 3p)     0.00649       0.66971
  50    C  4  pz     Val( 2p)     0.96035      -0.13481
  51    C  4  pz     Ryd( 3p)     0.00154       0.52970
  52    C  4  dxy    Ryd( 3d)     0.00146       2.35604
  53    C  4  dxz    Ryd( 3d)     0.00196       1.91669
  54    C  4  dyz    Ryd( 3d)     0.00101       1.92058
  55    C  4  dx2y2  Ryd( 3d)     0.00239       2.29150
  56    C  4  dz2    Ryd( 3d)     0.00065       2.00847

  57    N  5  s      Cor( 1s)     1.99933     -13.80844
  58    N  5  s      Val( 2s)     1.46197      -0.48323
  59    N  5  s      Ryd( 3s)     0.00123       1.21376
  60    N  5  px     Val( 2p)     1.64909      -0.18108
  61    N  5  px     Ryd( 3p)     0.00457       0.86306
  62    N  5  py     Val( 2p)     1.27507      -0.14962
  63    N  5  py     Ryd( 3p)     0.00281       0.94404
  64    N  5  pz     Val( 2p)     1.24913      -0.17000
  65    N  5  pz     Ryd( 3p)     0.00126       0.79207
  66    N  5  dxy    Ryd( 3d)     0.00224       2.77084
  67    N  5  dxz    Ryd( 3d)     0.00174       2.25601
  68    N  5  dyz    Ryd( 3d)     0.00044       2.37706
  69    N  5  dx2y2  Ryd( 3d)     0.00171       2.44575
  70    N  5  dz2    Ryd( 3d)     0.00102       2.39530

  71    C  6  s      Cor( 1s)     1.99934      -9.88155
  72    C  6  s      Val( 2s)     0.94799      -0.20225
  73    C  6  s      Ryd( 3s)     0.00830       0.48751
  74    C  6  px     Val( 2p)     1.07023      -0.06276
  75    C  6  px     Ryd( 3p)     0.00541       0.72902
  76    C  6  py     Val( 2p)     0.82618      -0.04087
  77    C  6  py     Ryd( 3p)     0.01192       0.48306
  78    C  6  pz     Val( 2p)     0.74558      -0.14403
  79    C  6  pz     Ryd( 3p)     0.00170       0.44816
  80    C  6  dxy    Ryd( 3d)     0.00203       2.25456
  81    C  6  dxz    Ryd( 3d)     0.00089       1.85353
  82    C  6  dyz    Ryd( 3d)     0.00165       1.96090
  83    C  6  dx2y2  Ryd( 3d)     0.00310       2.35993
  84    C  6  dz2    Ryd( 3d)     0.00072       2.00947

  85    O  7  s      Cor( 1s)     1.99975     -18.53417
  86    O  7  s      Val( 2s)     1.69785      -0.82712
  87    O  7  s      Ryd( 3s)     0.00157       1.39010
  88    O  7  px     Val( 2p)     1.78333      -0.25786
  89    O  7  px     Ryd( 3p)     0.00255       1.08575
  90    O  7  py     Val( 2p)     1.64672      -0.28403
  91    O  7  py     Ryd( 3p)     0.00125       0.98694
  92    O  7  pz     Val( 2p)     1.36375      -0.26075
  93    O  7  pz     Ryd( 3p)     0.00063       0.95626
  94    O  7  dxy    Ryd( 3d)     0.00228       2.97478
  95    O  7  dxz    Ryd( 3d)     0.00068       2.60257
  96    O  7  dyz    Ryd( 3d)     0.00169       2.70690
  97    O  7  dx2y2  Ryd( 3d)     0.00196       2.80388
  98    O  7  dz2    Ryd( 3d)     0.00090       2.68503

  99    H  8  s      Val( 1s)     0.77667       0.06242
 100    H  8  s      Ryd( 2s)     0.00104       0.30458
 101    H  8  px     Ryd( 2p)     0.00034       1.95165
 102    H  8  py     Ryd( 2p)     0.00056       2.08536
 103    H  8  pz     Ryd( 2p)     0.00034       1.65204

 104    H  9  s      Val( 1s)     0.79142       0.05073
 105    H  9  s      Ryd( 2s)     0.00159       0.31557
 106    H  9  px     Ryd( 2p)     0.00028       1.88005
 107    H  9  py     Ryd( 2p)     0.00064       2.15476
 108    H  9  pz     Ryd( 2p)     0.00029       1.62720

 109    H 10  s      Val( 1s)     0.78972       0.03801
 110    H 10  s      Ryd( 2s)     0.00436       0.34192
 111    H 10  px     Ryd( 2p)     0.00021       1.93269
 112    H 10  py     Ryd( 2p)     0.00080       2.15146
 113    H 10  pz     Ryd( 2p)     0.00027       1.62077

 114    H 11  s      Val( 1s)     0.57704       0.06352
 115    H 11  s      Ryd( 2s)     0.00784       0.40447
 116    H 11  px     Ryd( 2p)     0.00031       1.94726
 117    H 11  py     Ryd( 2p)     0.00127       2.22119
 118    H 11  pz     Ryd( 2p)     0.00051       1.66153

 119    H 12  s      Val( 1s)     0.65729       0.05825
 120    H 12  s      Ryd( 2s)     0.00164       0.41499
 121    H 12  px     Ryd( 2p)     0.00089       1.91094
 122    H 12  py     Ryd( 2p)     0.00112       2.21317
 123    H 12  pz     Ryd( 2p)     0.00066       1.69394

 124    H 13  s      Val( 1s)     0.83906       0.01635
 125    H 13  s      Ryd( 2s)     0.00526       0.31991
 126    H 13  px     Ryd( 2p)     0.00108       2.25939
 127    H 13  py     Ryd( 2p)     0.00010       1.74976
 128    H 13  pz     Ryd( 2p)     0.00007       1.57854

   1 low occupancy (<1.9990e) core orbital  found on  C  2


 Summary of Natural Population Analysis:

                                     Natural Population
             Natural    ---------------------------------------------
  Atom No    Charge        Core      Valence    Rydberg      Total
 --------------------------------------------------------------------
    C  1   -0.46829      1.99903     4.45827    0.01099     6.46829
    C  2   -0.01881      1.99895     4.00299    0.01687     6.01881
    N  3   -0.60474      1.99906     5.59471    0.01097     7.60474
    C  4    0.33612      1.99912     3.63563    0.02914     5.66388
    N  5   -0.65164      1.99933     5.63527    0.01704     7.65164
    C  6    0.37495      1.99934     3.58999    0.03572     5.62505
    O  7   -0.50492      1.99975     6.49166    0.01352     8.50492
    H  8    0.22104      0.00000     0.77667    0.00229     0.77896
    H  9    0.20577      0.00000     0.79142    0.00281     0.79423
    H 10    0.20464      0.00000     0.78972    0.00564     0.79536
    H 11    0.41302      0.00000     0.57704    0.00993     0.58698
    H 12    0.33840      0.00000     0.65729    0.00431     0.66160
    H 13    0.15444      0.00000     0.83906    0.00651     0.84556
 ====================================================================
 * Total *  0.00000     13.99456    37.83971    0.16573    52.00000

                                 Natural Population
 ---------------------------------------------------------
   Core                      13.99456 ( 99.9611% of   14)
   Valence                   37.83971 ( 99.5782% of   38)
   Natural Minimal Basis     51.83427 ( 99.6813% of   52)
   Natural Rydberg Basis      0.16573 (  0.3187% of   52)
 ---------------------------------------------------------

    Atom No         Natural Electron Configuration
 ----------------------------------------------------------------------------
      C  1      [core]2s( 1.04)2p( 3.42)3p( 0.01)
      C  2      [core]2s( 0.91)2p( 3.10)3p( 0.01)
      N  3      [core]2s( 1.22)2p( 4.37)3p( 0.01)
      C  4      [core]2s( 0.80)2p( 2.84)3p( 0.02)3d( 0.01)
      N  5      [core]2s( 1.46)2p( 4.17)3p( 0.01)3d( 0.01)
      C  6      [core]2s( 0.95)2p( 2.64)3s( 0.01)3p( 0.02)3d( 0.01)
      O  7      [core]2s( 1.70)2p( 4.79)3d( 0.01)
      H  8            1s( 0.78)
      H  9            1s( 0.79)
      H 10            1s( 0.79)
      H 11            1s( 0.58)2s( 0.01)
      H 12            1s( 0.66)
      H 13            1s( 0.84)2s( 0.01)


 NATURAL BOND ORBITAL ANALYSIS:

                            Occupancies       Lewis Structure    Low   High
         Max    Occ     -------------------  -----------------   occ   occ
  Cycle  Ctr   Thresh    Lewis   non-Lewis     CR  BD  nC  LP    (L)   (NL)
 ============================================================================
    1     2     1.90    51.02928   0.97072      7  15   0   4     2      2
    2     2     1.86    51.02996   0.97004      7  15   0   4     1      2
    3     2     1.85    51.02996   0.97004      7  15   0   4     1      2
    4     2     1.82    51.02996   0.97004      7  15   0   4     1      2
    5     2     1.73    51.02996   0.97004      7  15   0   4     1      2
    6     2     1.62    51.02996   0.97004      7  15   0   4     0      2
    7     2     1.53    51.02996   0.97004      7  15   0   4     0      2
    8     2     1.50    51.02996   0.97004      7  15   0   4     0      2
    9     2     1.86    51.02996   0.97004      7  15   0   4     1      2
 ----------------------------------------------------------------------------

 Strongly delocalized structure accepted

 -------------------------------------------------------
   Core                     13.99456 ( 99.961% of  14)
   Valence Lewis            37.03540 ( 97.462% of  38)
  ==================      =============================
   Total Lewis              51.02996 ( 98.135% of  52)
  -----------------------------------------------------
   Valence non-Lewis         0.85874 (  1.651% of  52)
   Rydberg non-Lewis         0.11130 (  0.214% of  52)
  ==================      =============================
   Total non-Lewis           0.97004 (  1.865% of  52)
 -------------------------------------------------------


     (Occupancy)   Bond orbital / Coefficients / Hybrids
 ------------------ Lewis ------------------------------------------------------
   1. (1.99903) CR ( 1) C  1            s(100.00%)
                                         1.0000  0.0000  0.0000  0.0000  0.0000
                                         0.0000  0.0000  0.0000  0.0000  0.0000
                                         0.0000  0.0000  0.0000  0.0000
   2. (1.99895) CR ( 1) C  2            s(100.00%)
                                         1.0000  0.0000  0.0000  0.0000  0.0000
                                         0.0000  0.0000  0.0000  0.0000  0.0000
                                         0.0000  0.0000  0.0000  0.0000
   3. (1.99906) CR ( 1) N  3            s(100.00%)
                                         1.0000  0.0000  0.0000  0.0000  0.0000
                                         0.0000  0.0000  0.0000  0.0000  0.0000
                                         0.0000  0.0000  0.0000  0.0000
   4. (1.99912) CR ( 1) C  4            s(100.00%)
                                         1.0000  0.0000  0.0000  0.0000  0.0000
                                         0.0000  0.0000  0.0000  0.0000  0.0000
                                         0.0000  0.0000  0.0000  0.0000
   5. (1.99933) CR ( 1) N  5            s(100.00%)
                                         1.0000  0.0000  0.0000  0.0000  0.0000
                                         0.0000  0.0000  0.0000  0.0000  0.0000
                                         0.0000  0.0000  0.0000  0.0000
   6. (1.99934) CR ( 1) C  6            s(100.00%)
                                         1.0000  0.0000  0.0000  0.0000  0.0000
                                         0.0000  0.0000  0.0000  0.0000  0.0000
                                         0.0000  0.0000  0.0000  0.0000
   7. (1.99975) CR ( 1) O  7            s(100.00%)
                                         1.0000  0.0000  0.0000  0.0000  0.0000
                                         0.0000  0.0000  0.0000  0.0000  0.0000
                                         0.0000  0.0000  0.0000  0.0000
   8. (1.62888) LP ( 1) N  3            s(  0.00%)p 1.00( 99.99%)d 0.00(  0.01%)
                                         0.0000  0.0005  0.0009 -0.0766  0.0010
                                        -0.3157 -0.0005 -0.9457 -0.0109 -0.0017
                                        -0.0060  0.0036 -0.0017 -0.0014
   9. (1.91314) LP ( 1) N  5            s( 36.60%)p 1.73( 63.30%)d 0.00(  0.10%)
                                         0.0000  0.6048 -0.0158  0.7922  0.0293
                                        -0.0478  0.0032 -0.0477 -0.0028  0.0038
                                         0.0027 -0.0023 -0.0278  0.0129
  10. (1.98194) LP ( 1) O  7            s( 56.18%)p 0.78( 43.79%)d 0.00(  0.03%)
                                         0.0000  0.7494 -0.0149 -0.3149  0.0008
                                         0.5591 -0.0013 -0.1615  0.0005  0.0112
                                        -0.0028  0.0079  0.0073  0.0097
  11. (1.86473) LP ( 2) O  7            s(  0.14%)p99.99( 99.76%)d 0.77(  0.10%)
                                         0.0000  0.0354 -0.0100 -0.8551  0.0157
                                        -0.4647  0.0108  0.2238 -0.0048  0.0163
                                        -0.0033 -0.0099 -0.0256  0.0022
  12. (1.98575) BD ( 1) C  1- C  2
               ( 48.39%)   0.6956* C  1 s( 40.00%)p 1.50( 59.93%)d 0.00(  0.07%)
                                         0.0000  0.6322  0.0188  0.7699  0.0262
                                        -0.0641 -0.0062 -0.0409  0.0001 -0.0024
                                        -0.0031 -0.0022  0.0207 -0.0155
               ( 51.61%)   0.7184* C  2 s( 41.92%)p 1.38( 58.03%)d 0.00(  0.05%)
                                         0.0000  0.6471  0.0220 -0.7562 -0.0139
                                         0.0842 -0.0088  0.0322  0.0039 -0.0068
                                        -0.0009 -0.0018  0.0158 -0.0129
  13. (1.96432) BD ( 2) C  1- C  2
               ( 52.06%)   0.7215* C  1 s(  0.00%)p 1.00( 99.94%)d 0.00(  0.06%)
                                         0.0000  0.0002  0.0000  0.0762 -0.0016
                                         0.3148 -0.0089  0.9453 -0.0271  0.0075
                                         0.0229 -0.0025  0.0026 -0.0020
               ( 47.94%)   0.6924* C  2 s(  0.00%)p 1.00( 99.94%)d 0.00(  0.06%)
                                         0.0000  0.0002  0.0009  0.0755 -0.0004
                                         0.3149 -0.0073  0.9454 -0.0270 -0.0071
                                        -0.0222  0.0052 -0.0035  0.0003
  14. (1.97931) BD ( 1) C  1- H  8
               ( 60.90%)   0.7804* C  1 s( 30.04%)p 2.33( 69.93%)d 0.00(  0.03%)
                                         0.0000  0.5480 -0.0048 -0.4886 -0.0147
                                        -0.6310  0.0046  0.2494  0.0005  0.0116
                                        -0.0046 -0.0089 -0.0069 -0.0081
               ( 39.10%)   0.6253* H  8 s( 99.91%)p 0.00(  0.09%)
                                         0.9995 -0.0004  0.0178  0.0233 -0.0091
  15. (1.98210) BD ( 1) C  1- H  9
               ( 60.35%)   0.7768* C  1 s( 29.96%)p 2.34( 70.01%)d 0.00(  0.04%)
                                         0.0000  0.5472 -0.0115 -0.4002 -0.0249
                                         0.7058 -0.0023 -0.2029  0.0017 -0.0102
                                         0.0027 -0.0083 -0.0101 -0.0089
               ( 39.65%)   0.6297* H  9 s( 99.91%)p 0.00(  0.09%)
                                         0.9995 -0.0019  0.0159 -0.0253  0.0070
  16. (1.98411) BD ( 1) C  2- N  3
               ( 37.16%)   0.6096* C  2 s( 29.01%)p 2.44( 70.86%)d 0.00(  0.14%)
                                         0.0000  0.5384  0.0128  0.5185  0.0151
                                         0.6150  0.0226 -0.2464 -0.0084  0.0265
                                        -0.0112 -0.0152 -0.0043 -0.0166
               ( 62.84%)   0.7927* N  3 s( 37.23%)p 1.68( 62.73%)d 0.00(  0.04%)
                                         0.0000  0.6101  0.0081 -0.5078  0.0124
                                        -0.5628 -0.0065  0.2293  0.0007  0.0119
                                        -0.0053 -0.0089 -0.0027 -0.0103
  17. (1.97270) BD ( 1) C  2- H 10
               ( 60.68%)   0.7789* C  2 s( 29.13%)p 2.43( 70.84%)d 0.00(  0.03%)
                                         0.0000  0.5389 -0.0286  0.3899 -0.0175
                                        -0.7163  0.0030  0.2074  0.0011 -0.0132
                                         0.0034 -0.0062 -0.0058 -0.0085
               ( 39.32%)   0.6271* H 10 s( 99.89%)p 0.00(  0.11%)
                                         0.9994 -0.0054 -0.0098  0.0302 -0.0092
  18. (1.98483) BD ( 1) N  3- C  4
               ( 62.72%)   0.7920* N  3 s( 36.62%)p 1.73( 63.34%)d 0.00(  0.04%)
                                         0.0000  0.6051  0.0036  0.7914 -0.0028
                                        -0.0738 -0.0066 -0.0392  0.0022 -0.0038
                                        -0.0020 -0.0030  0.0149 -0.0136
               ( 37.28%)   0.6105* C  4 s( 33.04%)p 2.02( 66.85%)d 0.00(  0.12%)
                                         0.0000  0.5748  0.0020 -0.8140 -0.0201
                                        -0.0185  0.0044  0.0713  0.0001 -0.0034
                                        -0.0038 -0.0018  0.0280 -0.0193
  19. (1.98050) BD ( 1) N  3- H 11
               ( 72.17%)   0.8495* N  3 s( 26.09%)p 2.83( 73.88%)d 0.00(  0.03%)
                                         0.0000  0.5107 -0.0064 -0.3309  0.0072
                                         0.7601 -0.0035 -0.2267  0.0022 -0.0084
                                         0.0020 -0.0085 -0.0096 -0.0092
               ( 27.83%)   0.5275* H 11 s( 99.76%)p 0.00(  0.24%)
                                         0.9986 -0.0203  0.0163 -0.0444  0.0138
  20. (1.99003) BD ( 1) C  4- N  5
               ( 41.77%)   0.6463* C  4 s( 36.55%)p 1.73( 63.37%)d 0.00(  0.08%)
                                         0.0000  0.6042  0.0199  0.4555  0.0282
                                        -0.6280 -0.0319  0.1730  0.0085 -0.0210
                                         0.0050 -0.0093 -0.0041 -0.0150
               ( 58.23%)   0.7631* N  5 s( 42.65%)p 1.34( 57.22%)d 0.00(  0.14%)
                                         0.0000  0.6527  0.0200 -0.4725  0.0096
                                         0.5703 -0.0129 -0.1530  0.0029 -0.0293
                                         0.0066 -0.0085  0.0032 -0.0192
  21. (1.92305) BD ( 2) C  4- N  5
               ( 41.20%)   0.6419* C  4 s(  0.00%)p 1.00( 99.88%)d 0.00(  0.12%)
                                         0.0000  0.0006  0.0007  0.0760 -0.0010
                                         0.3158 -0.0039  0.9449 -0.0220  0.0060
                                         0.0237 -0.0207  0.0095  0.0099
               ( 58.80%)   0.7668* N  5 s(  0.00%)p 1.00( 99.84%)d 0.00(  0.16%)
                                         0.0000  0.0004  0.0017  0.0756  0.0003
                                         0.3156 -0.0038  0.9450 -0.0064 -0.0108
                                        -0.0355  0.0134 -0.0076 -0.0033
  22. (1.96999) BD ( 1) C  4- C  6
               ( 51.89%)   0.7204* C  4 s( 30.26%)p 2.30( 69.70%)d 0.00(  0.04%)
                                         0.0000  0.5500 -0.0105  0.3484  0.0067
                                         0.7101 -0.0273 -0.2656  0.0085  0.0109
                                        -0.0041 -0.0099 -0.0111 -0.0072
               ( 48.11%)   0.6936* C  6 s( 35.84%)p 1.79( 64.11%)d 0.00(  0.06%)
                                         0.0000  0.5986  0.0006 -0.3779  0.0142
                                        -0.6597  0.0006  0.2507 -0.0022  0.0177
                                        -0.0067 -0.0095 -0.0074 -0.0077
  23. (1.97064) BD ( 1) N  5- H 12
               ( 67.07%)   0.8190* N  5 s( 20.74%)p 3.82( 79.14%)d 0.01(  0.12%)
                                         0.0000  0.4553  0.0063 -0.3752 -0.0216
                                        -0.7545  0.0361  0.2818 -0.0114  0.0277
                                        -0.0118 -0.0097  0.0051 -0.0138
               ( 32.93%)   0.5738* H 12 s( 99.83%)p 0.00(  0.17%)
                                         0.9991 -0.0031  0.0121  0.0375 -0.0135
  24. (1.99643) BD ( 1) C  6- O  7
               ( 33.29%)   0.5769* C  6 s( 31.22%)p 2.20( 68.56%)d 0.01(  0.22%)
                                         0.0000  0.5556  0.0593 -0.4299 -0.0153
                                         0.6772  0.0701 -0.1912 -0.0224 -0.0363
                                         0.0104 -0.0144 -0.0149 -0.0190
               ( 66.71%)   0.8168* O  7 s( 43.73%)p 1.28( 56.08%)d 0.00(  0.19%)
                                         0.0000  0.6608  0.0261  0.4021  0.0138
                                        -0.6077 -0.0153  0.1712  0.0039 -0.0332
                                         0.0097 -0.0134 -0.0161 -0.0164
  25. (1.97688) BD ( 2) C  6- O  7
               ( 34.46%)   0.5870* C  6 s(  0.00%)p 1.00( 99.72%)d 0.00(  0.28%)
                                         0.0000  0.0004  0.0023 -0.0759  0.0013
                                        -0.3151  0.0071 -0.9441  0.0264  0.0074
                                         0.0318 -0.0346  0.0153  0.0178
               ( 65.54%)   0.8096* O  7 s(  0.00%)p 1.00( 99.83%)d 0.00(  0.17%)
                                         0.0000  0.0003  0.0005 -0.0756 -0.0007
                                        -0.3159 -0.0047 -0.9448 -0.0145 -0.0039
                                        -0.0198  0.0295 -0.0125 -0.0163
  26. (1.98606) BD ( 1) C  6- H 13
               ( 59.56%)   0.7718* C  6 s( 33.00%)p 2.03( 66.97%)d 0.00(  0.04%)
                                         0.0000  0.5739 -0.0252  0.8143 -0.0137
                                         0.0258  0.0141 -0.0738 -0.0040 -0.0018
                                        -0.0016  0.0022  0.0174 -0.0067
               ( 40.44%)   0.6359* H 13 s( 99.88%)p 0.00(  0.12%)
                                         0.9993 -0.0146 -0.0340  0.0024  0.0019
 ---------------- non-Lewis ----------------------------------------------------
  27. (0.00782) BD*( 1) C  1- C  2
               ( 51.61%)   0.7184* C  1 s( 40.00%)p 1.50( 59.93%)d 0.00(  0.07%)
                                         0.0000  0.6322  0.0188  0.7699  0.0262
                                        -0.0641 -0.0062 -0.0409  0.0001 -0.0024
                                        -0.0031 -0.0022  0.0207 -0.0155
               ( 48.39%)  -0.6956* C  2 s( 41.92%)p 1.38( 58.03%)d 0.00(  0.05%)
                                         0.0000  0.6471  0.0220 -0.7562 -0.0139
                                         0.0842 -0.0088  0.0322  0.0039 -0.0068
                                        -0.0009 -0.0018  0.0158 -0.0129
  28. (0.14281) BD*( 2) C  1- C  2
               ( 47.94%)   0.6924* C  1 s(  0.00%)p 1.00( 99.94%)d 0.00(  0.06%)
                                         0.0000 -0.0002  0.0000 -0.0762  0.0016
                                        -0.3148  0.0089 -0.9453  0.0271 -0.0075
                                        -0.0229  0.0025 -0.0026  0.0020
               ( 52.06%)  -0.7215* C  2 s(  0.00%)p 1.00( 99.94%)d 0.00(  0.06%)
                                         0.0000 -0.0002 -0.0009 -0.0755  0.0004
                                        -0.3149  0.0073 -0.9454  0.0270  0.0071
                                         0.0222 -0.0052  0.0035 -0.0003
  29. (0.00573) BD*( 1) C  1- H  8
               ( 39.10%)   0.6253* C  1 s( 30.04%)p 2.33( 69.93%)d 0.00(  0.03%)
                                         0.0000 -0.5480  0.0048  0.4886  0.0147
                                         0.6310 -0.0046 -0.2494 -0.0005 -0.0116
                                         0.0046  0.0089  0.0069  0.0081
               ( 60.90%)  -0.7804* H  8 s( 99.91%)p 0.00(  0.09%)
                                        -0.9995  0.0004 -0.0178 -0.0233  0.0091
  30. (0.01026) BD*( 1) C  1- H  9
               ( 39.65%)   0.6297* C  1 s( 29.96%)p 2.34( 70.01%)d 0.00(  0.04%)
                                         0.0000 -0.5472  0.0115  0.4002  0.0249
                                        -0.7058  0.0023  0.2029 -0.0017  0.0102
                                        -0.0027  0.0083  0.0101  0.0089
               ( 60.35%)  -0.7768* H  9 s( 99.91%)p 0.00(  0.09%)
                                        -0.9995  0.0019 -0.0159  0.0253 -0.0070
  31. (0.03088) BD*( 1) C  2- N  3
               ( 62.84%)   0.7927* C  2 s( 29.01%)p 2.44( 70.86%)d 0.00(  0.14%)
                                         0.0000  0.5384  0.0128  0.5185  0.0151
                                         0.6150  0.0226 -0.2464 -0.0084  0.0265
                                        -0.0112 -0.0152 -0.0043 -0.0166
               ( 37.16%)  -0.6096* N  3 s( 37.23%)p 1.68( 62.73%)d 0.00(  0.04%)
                                         0.0000  0.6101  0.0081 -0.5078  0.0124
                                        -0.5628 -0.0065  0.2293  0.0007  0.0119
                                        -0.0053 -0.0089 -0.0027 -0.0103
  32. (0.02444) BD*( 1) C  2- H 10
               ( 39.32%)   0.6271* C  2 s( 29.13%)p 2.43( 70.84%)d 0.00(  0.03%)
                                         0.0000 -0.5389  0.0286 -0.3899  0.0175
                                         0.7163 -0.0030 -0.2074 -0.0011  0.0132
                                        -0.0034  0.0062  0.0058  0.0085
               ( 60.68%)  -0.7789* H 10 s( 99.89%)p 0.00(  0.11%)
                                        -0.9994  0.0054  0.0098 -0.0302  0.0092
  33. (0.06701) BD*( 1) N  3- C  4
               ( 37.28%)   0.6105* N  3 s( 36.62%)p 1.73( 63.34%)d 0.00(  0.04%)
                                         0.0000 -0.6051 -0.0036 -0.7914  0.0028
                                         0.0738  0.0066  0.0392 -0.0022  0.0038
                                         0.0020  0.0030 -0.0149  0.0136
               ( 62.72%)  -0.7920* C  4 s( 33.04%)p 2.02( 66.85%)d 0.00(  0.12%)
                                         0.0000 -0.5748 -0.0020  0.8140  0.0201
                                         0.0185 -0.0044 -0.0713 -0.0001  0.0034
                                         0.0038  0.0018 -0.0280  0.0193
  34. (0.03733) BD*( 1) N  3- H 11
               ( 27.83%)   0.5275* N  3 s( 26.09%)p 2.83( 73.88%)d 0.00(  0.03%)
                                         0.0000 -0.5107  0.0064  0.3309 -0.0072
                                        -0.7601  0.0035  0.2267 -0.0022  0.0084
                                        -0.0020  0.0085  0.0096  0.0092
               ( 72.17%)  -0.8495* H 11 s( 99.76%)p 0.00(  0.24%)
                                        -0.9986  0.0203 -0.0163  0.0444 -0.0138
  35. (0.01313) BD*( 1) C  4- N  5
               ( 58.23%)   0.7631* C  4 s( 36.55%)p 1.73( 63.37%)d 0.00(  0.08%)
                                         0.0000  0.6042  0.0199  0.4555  0.0282
                                        -0.6280 -0.0319  0.1730  0.0085 -0.0210
                                         0.0050 -0.0093 -0.0041 -0.0150
               ( 41.77%)  -0.6463* N  5 s( 42.65%)p 1.34( 57.22%)d 0.00(  0.14%)
                                         0.0000  0.6527  0.0200 -0.4725  0.0096
                                         0.5703 -0.0129 -0.1530  0.0029 -0.0293
                                         0.0066 -0.0085  0.0032 -0.0192
  36. (0.27429) BD*( 2) C  4- N  5
               ( 58.80%)   0.7668* C  4 s(  0.00%)p 1.00( 99.88%)d 0.00(  0.12%)
                                         0.0000 -0.0006 -0.0007 -0.0760  0.0010
                                        -0.3158  0.0039 -0.9449  0.0220 -0.0060
                                        -0.0237  0.0207 -0.0095 -0.0099
               ( 41.20%)  -0.6419* N  5 s(  0.00%)p 1.00( 99.84%)d 0.00(  0.16%)
                                         0.0000 -0.0004 -0.0017 -0.0756 -0.0003
                                        -0.3156  0.0038 -0.9450  0.0064  0.0108
                                         0.0355 -0.0134  0.0076  0.0033
  37. (0.08813) BD*( 1) C  4- C  6
               ( 48.11%)   0.6936* C  4 s( 30.26%)p 2.30( 69.70%)d 0.00(  0.04%)
                                         0.0000 -0.5500  0.0105 -0.3484 -0.0067
                                        -0.7101  0.0273  0.2656 -0.0085 -0.0109
                                         0.0041  0.0099  0.0111  0.0072
               ( 51.89%)  -0.7204* C  6 s( 35.84%)p 1.79( 64.11%)d 0.00(  0.06%)
                                         0.0000 -0.5986 -0.0006  0.3779 -0.0142
                                         0.6597 -0.0006 -0.2507  0.0022 -0.0177
                                         0.0067  0.0095  0.0074  0.0077
  38. (0.01412) BD*( 1) N  5- H 12
               ( 32.93%)   0.5738* N  5 s( 20.74%)p 3.82( 79.14%)d 0.01(  0.12%)
                                         0.0000 -0.4553 -0.0063  0.3752  0.0216
                                         0.7545 -0.0361 -0.2818  0.0114 -0.0277
                                         0.0118  0.0097 -0.0051  0.0138
               ( 67.07%)  -0.8190* H 12 s( 99.83%)p 0.00(  0.17%)
                                        -0.9991  0.0031 -0.0121 -0.0375  0.0135
  39. (0.00625) BD*( 1) C  6- O  7
               ( 66.71%)   0.8168* C  6 s( 31.22%)p 2.20( 68.56%)d 0.01(  0.22%)
                                         0.0000  0.5556  0.0593 -0.4299 -0.0153
                                         0.6772  0.0701 -0.1912 -0.0224 -0.0363
                                         0.0104 -0.0144 -0.0149 -0.0190
               ( 33.29%)  -0.5769* O  7 s( 43.73%)p 1.28( 56.08%)d 0.00(  0.19%)
                                         0.0000  0.6608  0.0261  0.4021  0.0138
                                        -0.6077 -0.0153  0.1712  0.0039 -0.0332
                                         0.0097 -0.0134 -0.0161 -0.0164
  40. (0.07476) BD*( 2) C  6- O  7
               ( 65.54%)   0.8096* C  6 s(  0.00%)p 1.00( 99.72%)d 0.00(  0.28%)
                                         0.0000  0.0004  0.0023 -0.0759  0.0013
                                        -0.3151  0.0071 -0.9441  0.0264  0.0074
                                         0.0318 -0.0346  0.0153  0.0178
               ( 34.46%)  -0.5870* O  7 s(  0.00%)p 1.00( 99.83%)d 0.00(  0.17%)
                                         0.0000  0.0003  0.0005 -0.0756 -0.0007
                                        -0.3159 -0.0047 -0.9448 -0.0145 -0.0039
                                        -0.0198  0.0295 -0.0125 -0.0163
  41. (0.06178) BD*( 1) C  6- H 13
               ( 40.44%)   0.6359* C  6 s( 33.00%)p 2.03( 66.97%)d 0.00(  0.04%)
                                         0.0000 -0.5739  0.0252 -0.8143  0.0137
                                        -0.0258 -0.0141  0.0738  0.0040  0.0018
                                         0.0016 -0.0022 -0.0174  0.0067
               ( 59.56%)  -0.7718* H 13 s( 99.88%)p 0.00(  0.12%)
                                        -0.9993  0.0146  0.0340 -0.0024 -0.0019
  42. (0.00363) RY ( 1) C  1            s(  1.69%)p55.60( 93.77%)d 2.69(  4.54%)
                                         0.0000  0.0038  0.1298 -0.0085  0.2800
                                         0.0109  0.8768 -0.0029 -0.3005  0.1981
                                        -0.0673  0.0020  0.0377  0.0131
  43. (0.00097) RY ( 2) C  1            s(  0.23%)p99.99( 93.00%)d30.09(  6.78%)
                                         0.0000  0.0001  0.0475 -0.0027  0.1494
                                         0.0091  0.2574  0.0200  0.9170  0.0900
                                         0.2237  0.0612 -0.0017 -0.0770
  44. (0.00065) RY ( 3) C  1            s( 22.41%)p 3.44( 77.02%)d 0.03(  0.57%)
                                         0.0000  0.0009  0.4734 -0.0438  0.8010
                                         0.0095 -0.3525 -0.0023 -0.0484  0.0189
                                        -0.0446 -0.0110  0.0513 -0.0240
  45. (0.00011) RY ( 4) C  1            s( 52.72%)p 0.27( 14.12%)d 0.63( 33.16%)
                                         0.0000 -0.0067  0.7261 -0.0020 -0.3501
                                        -0.0070  0.1352  0.0025 -0.0156 -0.5232
                                         0.1647 -0.0642 -0.0667 -0.1487
  46. (0.00003) RY ( 5) C  1            s( 11.38%)p 0.43(  4.87%)d 7.36( 83.74%)
  47. (0.00000) RY ( 6) C  1            s(  5.84%)p 1.28(  7.44%)d14.86( 86.72%)
  48. (0.00000) RY ( 7) C  1            s(  0.78%)p 6.76(  5.30%)d99.99( 93.92%)
  49. (0.00000) RY ( 8) C  1            s(  4.94%)p 0.65(  3.23%)d18.57( 91.82%)
  50. (0.00000) RY ( 9) C  1            s(  0.01%)p 1.00(  1.44%)d68.64( 98.55%)
  51. (0.00639) RY ( 1) C  2            s(  5.21%)p16.99( 88.59%)d 1.19(  6.19%)
                                         0.0000  0.0087  0.2282  0.0035  0.8643
                                        -0.0254 -0.3667  0.0074  0.0606  0.1424
                                        -0.0618  0.0367  0.1875 -0.0360
  52. (0.00239) RY ( 2) C  2            s(  0.50%)p91.45( 46.17%)d99.99( 53.33%)
                                         0.0000  0.0000  0.0711  0.0069 -0.2193
                                        -0.0070 -0.4867 -0.0273 -0.4193 -0.0872
                                        -0.6068 -0.2783  0.0803  0.2711
  53. (0.00213) RY ( 3) C  2            s(  5.76%)p12.65( 72.86%)d 3.71( 21.38%)
                                         0.0000 -0.0016  0.2400  0.0213 -0.4093
                                         0.0058 -0.5764  0.0111  0.4778  0.4078
                                         0.1488  0.1160  0.0089 -0.1084
  54. (0.00057) RY ( 4) C  2            s( 85.55%)p 0.15( 12.73%)d 0.02(  1.72%)
                                         0.0000 -0.0109  0.9249  0.0158 -0.1095
                                        -0.0294  0.3232  0.0065 -0.0986 -0.0787
                                        -0.0292 -0.0257  0.0857 -0.0461
  55. (0.00030) RY ( 5) C  2            s(  0.04%)p99.99( 10.23%)d99.99( 89.73%)
                                         0.0000  0.0076  0.0177  0.0283 -0.0773
                                         0.0279 -0.2810 -0.0105  0.1253 -0.7880
                                         0.2404  0.2579  0.3859  0.0561
  56. (0.00011) RY ( 6) C  2            s(  2.39%)p 3.05(  7.29%)d37.81( 90.32%)
                                         0.0000  0.0078  0.1544 -0.0034  0.1247
                                         0.0079 -0.2126 -0.0014  0.1097 -0.3391
                                         0.1658 -0.2301 -0.8326  0.1209
  57. (0.00007) RY ( 7) C  2            s(  0.10%)p99.99( 59.69%)d99.99( 40.21%)
  58. (0.00002) RY ( 8) C  2            s(  0.39%)p 1.71(  0.66%)d99.99( 98.95%)
  59. (0.00000) RY ( 9) C  2            s(  0.00%)p 1.00(  2.10%)d46.52( 97.90%)
  60. (0.00319) RY ( 1) N  3            s( 33.70%)p 1.72( 57.94%)d 0.25(  8.36%)
                                         0.0000 -0.0136  0.5804 -0.0005  0.2714
                                         0.0108 -0.6939 -0.0041  0.1550  0.1849
                                        -0.0867  0.0175  0.1997 -0.0420
  61. (0.00223) RY ( 2) N  3            s(  0.38%)p99.99( 94.70%)d13.04(  4.92%)
                                         0.0000 -0.0015  0.0614  0.0005  0.2033
                                        -0.0033  0.3365 -0.0086  0.8901  0.0274
                                         0.0402  0.1775 -0.0255 -0.1212
  62. (0.00165) RY ( 3) N  3            s(  4.52%)p19.85( 89.67%)d 1.29(  5.82%)
                                         0.0000  0.0049  0.2125 -0.0065 -0.8900
                                        -0.0021 -0.1865 -0.0022  0.2639 -0.0209
                                         0.0120 -0.0613 -0.2319 -0.0064
  63. (0.00090) RY ( 4) N  3            s( 58.15%)p 0.55( 31.72%)d 0.17( 10.13%)
                                         0.0000  0.0024  0.7626 -0.0024  0.0017
                                         0.0038  0.5035  0.0019 -0.2522 -0.2687
                                         0.1569  0.0152  0.0303 -0.0582
  64. (0.00054) RY ( 5) N  3            s(  0.28%)p 5.77(  1.59%)d99.99( 98.14%)
                                         0.0000  0.0001  0.0524 -0.0004  0.0242
                                         0.0007  0.0743  0.0033  0.0987 -0.3657
                                        -0.8423 -0.2315  0.0501  0.2865
  65. (0.00017) RY ( 6) N  3            s(  1.86%)p 2.94(  5.47%)d49.89( 92.67%)
                                         0.0000 -0.0059  0.1362  0.0191  0.2041
                                         0.0026  0.0984 -0.0014 -0.0547  0.4497
                                        -0.1396 -0.3801 -0.7461 -0.0618
  66. (0.00009) RY ( 7) N  3            s(  0.34%)p46.28( 15.54%)d99.99( 84.13%)
  67. (0.00002) RY ( 8) N  3            s(  0.85%)p 0.15(  0.12%)d99.99( 99.03%)
  68. (0.00000) RY ( 9) N  3            s(  0.00%)p 1.00(  3.32%)d29.13( 96.68%)
  69. (0.01296) RY ( 1) C  4            s(  2.65%)p34.11( 90.22%)d 2.70(  7.14%)
                                         0.0000 -0.0209  0.1613 -0.0464  0.8435
                                         0.0104 -0.4274  0.0013  0.0764  0.1107
                                        -0.0247 -0.0743 -0.2286  0.0274
  70. (0.00463) RY ( 2) C  4            s( 10.94%)p 7.51( 82.12%)d 0.64(  6.95%)
                                         0.0000 -0.0240  0.3298 -0.0044 -0.4598
                                        -0.0031 -0.7416  0.0018  0.2444  0.2249
                                        -0.0514 -0.0174  0.1247 -0.0209
  71. (0.00324) RY ( 3) C  4            s(  0.03%)p99.99( 11.71%)d99.99( 88.26%)
                                         0.0000  0.0015  0.0178 -0.0032  0.0006
                                        -0.0116 -0.0568 -0.0370 -0.3351  0.2201
                                         0.7953 -0.3928  0.1727  0.1322
  72. (0.00199) RY ( 4) C  4            s( 50.46%)p 0.23( 11.53%)d 0.75( 38.00%)
                                         0.0000  0.0080  0.7103 -0.0070 -0.1553
                                         0.0089  0.2942 -0.0019 -0.0670 -0.0039
                                         0.0122 -0.1924 -0.5854 -0.0123
  73. (0.00174) RY ( 5) C  4            s( 29.72%)p 0.13(  3.88%)d 2.23( 66.40%)
                                         0.0000 -0.0131  0.5450  0.0113  0.1804
                                         0.0283  0.0611 -0.0109 -0.0382 -0.4934
                                         0.1011  0.1902  0.5947 -0.1433
  74. (0.00063) RY ( 6) C  4            s(  0.01%)p 1.00( 82.44%)d 0.21( 17.55%)
                                         0.0000 -0.0004  0.0089  0.0013  0.0645
                                         0.0037  0.2749  0.0113  0.8628  0.1540
                                         0.3745  0.0482  0.0259 -0.0926
  75. (0.00027) RY ( 7) C  4            s(  0.03%)p99.99(  6.33%)d99.99( 93.64%)
                                         0.0000  0.0017  0.0176  0.0031 -0.0021
                                         0.0006 -0.0400  0.0071 -0.2483  0.2831
                                         0.2834  0.7001 -0.1853 -0.5014
  76. (0.00020) RY ( 8) C  4            s(  4.86%)p 2.45( 11.90%)d17.13( 83.24%)
                                         0.0000  0.0097  0.2202  0.0192  0.1226
                                        -0.0101  0.3068 -0.0007 -0.0967  0.7316
                                        -0.3503 -0.0722  0.4114 -0.0070
  77. (0.00002) RY ( 9) C  4            s(  1.46%)p 0.06(  0.08%)d67.46( 98.46%)
  78. (0.00314) RY ( 1) N  5            s(  3.18%)p29.09( 92.48%)d 1.37(  4.34%)
                                         0.0000  0.0132  0.1778  0.0203 -0.8515
                                         0.0030 -0.3947 -0.0028  0.2086  0.0702
                                        -0.0093 -0.0719 -0.1822  0.0070
  79. (0.00115) RY ( 2) N  5            s(  0.03%)p99.99( 96.25%)d99.99(  3.72%)
                                         0.0000 -0.0006  0.0179  0.0001 -0.0684
                                        -0.0050 -0.3288 -0.0132 -0.9217 -0.0264
                                        -0.1219  0.1196 -0.0596 -0.0616
  80. (0.00029) RY ( 3) N  5            s( 20.90%)p 3.64( 76.17%)d 0.14(  2.93%)
                                         0.0000 -0.0004  0.4572  0.0003  0.4457
                                        -0.0448 -0.7133  0.0129  0.2283 -0.1058
                                         0.0245  0.0152  0.1182 -0.0575
  81. (0.00014) RY ( 4) N  5            s( 71.41%)p 0.28( 20.30%)d 0.12(  8.29%)
                                         0.0000 -0.0089  0.8450  0.0189 -0.0196
                                         0.0214  0.4285 -0.0090 -0.1348  0.2661
                                        -0.0688 -0.0031 -0.0545  0.0661
  82. (0.00002) RY ( 5) N  5            s(  1.91%)p 1.09(  2.08%)d50.38( 96.02%)
  83. (0.00001) RY ( 6) N  5            s(  0.25%)p 0.84(  0.21%)d99.99( 99.54%)
  84. (0.00001) RY ( 7) N  5            s(  0.00%)p 1.00(  0.48%)d99.99( 99.51%)
  85. (0.00000) RY ( 8) N  5            s(  2.34%)p 3.91(  9.13%)d37.91( 88.53%)
  86. (0.00000) RY ( 9) N  5            s(  0.00%)p 1.00(  3.41%)d28.37( 96.59%)
  87. (0.01478) RY ( 1) C  6            s( 19.78%)p 4.04( 79.98%)d 0.01(  0.24%)
                                         0.0000 -0.0503  0.4419  0.0306 -0.4902
                                        -0.0659  0.7166  0.0196 -0.2009 -0.0354
                                         0.0075  0.0060  0.0292 -0.0125
  88. (0.00621) RY ( 2) C  6            s( 36.68%)p 0.26(  9.50%)d 1.47( 53.82%)
                                         0.0000  0.0030  0.6057  0.0373  0.0224
                                        -0.0006 -0.2912 -0.0015  0.0908  0.2838
                                        -0.0477 -0.2314 -0.6331  0.0325
  89. (0.00185) RY ( 3) C  6            s( 16.76%)p 3.96( 66.42%)d 1.00( 16.82%)
                                         0.0000 -0.0179  0.4090  0.0323  0.7766
                                        -0.0263  0.2184  0.0087 -0.1073 -0.3730
                                         0.1158  0.0174  0.1210 -0.0270
  90. (0.00136) RY ( 4) C  6            s(  2.31%)p12.18( 28.14%)d30.11( 69.55%)
                                         0.0000  0.0028  0.1520 -0.0033 -0.1064
                                        -0.0200 -0.2988 -0.0462 -0.4222 -0.1078
                                        -0.0998  0.6920 -0.0974 -0.4308
  91. (0.00109) RY ( 5) C  6            s( 18.92%)p 2.13( 40.31%)d 2.16( 40.77%)
                                         0.0000  0.0124  0.4348 -0.0007 -0.3228
                                        -0.0040 -0.4343  0.0208  0.3314 -0.3474
                                         0.1136 -0.0772  0.5172  0.0271
  92. (0.00006) RY ( 6) C  6            s(  5.37%)p 0.67(  3.60%)d16.94( 91.03%)
  93. (0.00005) RY ( 7) C  6            s(  0.07%)p99.99( 10.88%)d99.99( 89.05%)
  94. (0.00001) RY ( 8) C  6            s(  0.01%)p 1.00( 45.50%)d 1.20( 54.49%)
  95. (0.00000) RY ( 9) C  6            s(  0.04%)p99.99( 16.32%)d99.99( 83.64%)
  96. (0.00266) RY ( 1) O  7            s(  0.34%)p99.99( 96.25%)d10.08(  3.41%)
                                         0.0000  0.0024  0.0581 -0.0118 -0.8233
                                        -0.0067 -0.4785  0.0026  0.2357  0.0778
                                        -0.0132 -0.0570 -0.1562  0.0154
  97. (0.00024) RY ( 2) O  7            s(  0.20%)p99.99( 95.92%)d18.96(  3.88%)
                                         0.0000 -0.0010  0.0452  0.0000 -0.0579
                                         0.0091 -0.3421  0.0210 -0.9156 -0.0064
                                        -0.0449  0.1495 -0.0752 -0.0934
  98. (0.00014) RY ( 3) O  7            s( 13.87%)p 5.45( 75.54%)d 0.76( 10.59%)
                                         0.0000 -0.0198  0.3719 -0.0197  0.5083
                                         0.0286 -0.6628 -0.0089  0.2374 -0.1983
                                         0.0881 -0.0741 -0.2309  0.0043
  99. (0.00003) RY ( 4) O  7            s( 64.02%)p 0.03(  2.20%)d 0.53( 33.78%)
 100. (0.00001) RY ( 5) O  7            s( 19.10%)p 0.78( 14.91%)d 3.46( 65.99%)
 101. (0.00001) RY ( 6) O  7            s(  2.07%)p 5.02( 10.37%)d42.36( 87.56%)
 102. (0.00001) RY ( 7) O  7            s(  0.33%)p 4.02(  1.34%)d99.99( 98.33%)
 103. (0.00001) RY ( 8) O  7            s(  0.01%)p99.99(  1.98%)d99.99( 98.01%)
 104. (0.00000) RY ( 9) O  7            s(  0.00%)p 1.00(  2.05%)d47.77( 97.95%)
 105. (0.00110) RY ( 1) H  8            s( 94.51%)p 0.06(  5.49%)
                                         0.0076  0.9721 -0.1356 -0.1846  0.0491
 106. (0.00030) RY ( 2) H  8            s(  0.03%)p99.99( 99.97%)
                                         0.0005  0.0185  0.0677  0.3006  0.9511
 107. (0.00010) RY ( 3) H  8            s(  0.32%)p99.99( 99.68%)
 108. (0.00004) RY ( 4) H  8            s(  5.23%)p18.13( 94.77%)
 109. (0.00165) RY ( 1) H  9            s( 96.24%)p 0.04(  3.76%)
                                         0.0078  0.9810 -0.0854  0.1703 -0.0361
 110. (0.00027) RY ( 2) H  9            s(  0.01%)p99.99( 99.99%)
                                         0.0003  0.0103 -0.0797 -0.3007 -0.9503
 111. (0.00010) RY ( 3) H  9            s(  0.30%)p99.99( 99.70%)
                                        -0.0060  0.0548 -0.7321 -0.6270  0.2604
 112. (0.00003) RY ( 4) H  9            s(  3.54%)p27.24( 96.46%)
 113. (0.00445) RY ( 1) H 10            s( 98.40%)p 0.02(  1.60%)
                                         0.0078  0.9919  0.1190 -0.0431 -0.0007
 114. (0.00022) RY ( 2) H 10            s(  0.00%)p 1.00(100.00%)
                                         0.0002  0.0004  0.1166  0.3159  0.9416
 115. (0.00009) RY ( 3) H 10            s(  1.63%)p60.32( 98.37%)
 116. (0.00003) RY ( 4) H 10            s(  0.08%)p99.99( 99.92%)
[...]

                     36        37        38        39        40        41   
                   0.00000   0.00000   0.00000   0.00000   0.00000   0.00000
                   0.08813   0.01412   0.00625   0.07476   0.06178   0.00363
                  --------  --------  --------  --------  --------  --------
  0 C                 0.2       0.0      -0.0       0.0       0.0     174.5
  1 C                 1.3      -0.0       0.0       0.0      -0.0     -40.5
  2 N                 1.2       0.1      -1.1      -0.0      -0.9       2.6
  3 C                49.7       1.2       7.2      -0.4       1.6      -0.2
  4 N                 1.1      35.9      -1.6      -0.0       0.1      -0.0
  5 C                46.3      -0.8      56.0      64.8      46.0       0.0
  6 O                 0.3      -0.0      38.8      35.5      -0.4      -0.0
  7 H                -0.0      -0.0       0.0      -0.0       0.0     -18.5
  8 H                -0.0       0.0       0.0      -0.0       0.0     -17.5
  9 H                 0.0       0.8      -0.0       0.0      -0.0       0.0
 10 H                 0.0       0.0       0.4       0.0       0.0      -0.4
 11 H                -0.1      62.7       0.0      -0.0       0.0       0.0
 12 H                 0.1       0.0       0.3       0.2      53.5      -0.0

                     42        43        44        45        46        47   
                   0.00000   0.00000   0.00000   0.00000   0.00000   0.00000
                   0.00097   0.00065   0.00011   0.00003   0.00000   0.00000
                  --------  --------  --------  --------  --------  --------
  0 C               107.6     247.0     170.1     123.4     113.9     106.0
  1 C                -6.5    -135.8     -31.2      -9.2      -2.3      -3.6
  2 N                -0.1      -2.2       0.3      -0.0       0.0      -0.0
  3 C                -0.0      -0.7      -0.2      -0.1      -0.0      -0.0
  5 C                -0.0      -0.4      -0.1      -0.0       0.0      -0.0
  7 H                -0.8      -3.1     -13.8      -9.4      -9.6      -0.9
  8 H                -0.2      -3.4     -24.9      -4.6      -2.0      -1.4
  9 H                -0.0      -0.6      -0.3      -0.1       0.0      -0.1
 10 H                -0.0      -0.7       0.1       0.0      -0.0      -0.0

                     48        49        50        51        52        53   
                   0.00000   0.00000   0.00000   0.00000   0.00000   0.00000
                   0.00000   0.00000   0.00639   0.00239   0.00213   0.00057
                  --------  --------  --------  --------  --------  --------
  0 C               114.4     105.2     -30.4     -11.8     -54.9    -121.6
  1 C                -3.0      -0.3     178.4     121.4     197.1     273.3
  2 N                 0.0      -0.0     -10.8      -4.8     -18.8     -44.2
  3 C                -0.0      -0.0     -12.3      -1.0      -3.7      -4.2
  4 N                -0.0      -0.0       0.5      -0.0      -0.1      -0.1
  5 C                -0.0      -0.0      -2.0      -0.1      -0.6       0.3
  7 H                -5.0      -2.4      -0.7       0.3       2.2      -0.6
  8 H                -6.2      -2.5       0.3      -0.1      -1.1       1.5
  9 H                -0.1       0.0     -22.5      -3.4     -18.2      -3.7
 10 H                -0.0      -0.0      -0.3      -0.2      -1.0      -0.7
 11 H                -0.0      -0.0      -0.1      -0.2      -1.1      -0.0

                     54        55        56        57        58        59   
                   0.00000   0.00000   0.00000   0.00000   0.00000   0.00000
                   0.00030   0.00011   0.00007   0.00002   0.00000   0.00319
                  --------  --------  --------  --------  --------  --------
  0 C                -5.6      -5.1      -4.0      -1.2      -1.5       1.3
  1 C               110.6     118.6     109.1     107.1     104.9     -11.9
  2 N                -1.2      -4.1      -5.2      -1.6       0.1     152.1
  3 C                 0.7       0.9       0.1      -0.3      -0.1     -21.7
  4 N                 0.1      -0.0      -0.0      -0.0       0.0      -3.1
  5 C                 0.0       0.1      -0.0      -0.0      -0.0       1.5
  6 O                 0.0       0.0       0.0      -0.0      -0.0      -0.1
  7 H                 0.4       0.0       0.0       0.0       0.0       0.0
  8 H                 0.1       0.2      -0.0      -0.0      -0.0       0.0
  9 H                -4.9     -10.7       0.3      -3.8      -3.4      -0.3
 10 H                -0.3       0.1      -0.1      -0.1      -0.0     -17.7

                     60        61        62        63        64        65   
                   0.00000   0.00000   0.00000   0.00000   0.00000   0.00000
                   0.00223   0.00165   0.00090   0.00054   0.00017   0.00009
                  --------  --------  --------  --------  --------  --------
  0 C                 0.1       1.7      -2.2      -0.0       0.5       0.2
  1 C                -4.0     -17.4     -41.1      -1.8      -4.6      -3.8
  2 N               110.5     176.2     179.1     103.1     109.9     112.9
  3 C                -4.6     -47.8     -28.7      -1.3      -2.4      -4.5
  4 N                -0.4      -9.1      -1.8       0.0      -0.2       0.1
  5 C                -0.0       0.8      -3.4      -0.0       0.0      -0.3
  6 O                -0.1      -0.8      -0.4      -0.0       0.0       0.0
  7 H                -0.0      -0.1       0.1       0.0       0.0      -0.0
  8 H                -0.0      -0.3      -0.3      -0.0      -0.0      -0.0
  9 H                -0.1      -1.1      -0.5      -0.0      -0.0       0.1
 10 H                -1.4      -1.9      -0.5      -0.0      -3.2      -4.6
 11 H                -0.0      -0.3      -0.4      -0.0      -0.0       0.0
 12 H                -0.0       0.1       0.1      -0.0      -0.0      -0.0

                     66        67        68        69        70        71   
                   0.00000   0.00000   0.00000   0.00000   0.00000   0.00000
                   0.00002   0.00000   0.01296   0.00463   0.00324   0.00199
                  --------  --------  --------  --------  --------  --------
  0 C                -0.0       0.0      -0.0      -1.3      -0.0       0.2
  1 C                -0.6      -0.8      -2.2     -16.6      -0.2      -1.6
  2 N               104.2     103.7     -43.7     -20.2      -0.8     -43.6
  3 C                -0.8      -0.7     260.9     191.5     105.7     197.3
  4 N                -0.1      -0.0     -78.3     -33.7      -3.5       1.3
  5 C                -0.0      -0.0     -34.1     -16.6      -1.0     -52.4
  6 O                -0.0      -0.0      -1.2      -0.6      -0.0       0.6
  9 H                -0.0      -0.0      -0.1      -0.5      -0.0      -0.0
 10 H                -2.4      -2.1       0.0      -0.4      -0.0      -0.6
 11 H                -0.0      -0.0      -3.5      -1.7      -0.0      -0.0
 12 H                -0.0      -0.0       2.2       0.2      -0.0      -0.9

                     72        73        74        75        76        77   
                   0.00000   0.00000   0.00000   0.00000   0.00000   0.00000
                   0.00174   0.00063   0.00027   0.00020   0.00002   0.00314
                  --------  --------  --------  --------  --------  --------
  1 C                 0.5      -0.1      -0.0       0.5      -0.0       0.1
  2 N                -0.6      -6.4      -0.2      -5.3      -1.3      -1.7
  3 C               161.5     115.8     103.5     123.7     105.9     -19.9
  4 N               -15.9      -4.7      -0.5      -2.1      -1.1     125.0
  5 C               -44.2      -4.5      -2.6     -16.6      -3.3       1.7
  6 O                -0.3      -0.0      -0.1       0.2      -0.0       0.0
  9 H                 0.0      -0.0      -0.0      -0.2      -0.0       0.1
 10 H                -0.3      -0.1       0.0       0.3      -0.1      -0.1
 11 H                -0.2      -0.0      -0.0      -0.1      -0.1      -4.1
 12 H                -0.4       0.0      -0.1      -0.3      -0.1      -1.0

                     78        79        80        81        82        83   
                   0.00000   0.00000   0.00000   0.00000   0.00000   0.00000
                   0.00115   0.00029   0.00014   0.00002   0.00001   0.00001
                  --------  --------  --------  --------  --------  --------
  2 N                -0.4     -10.9      -2.9       0.0      -0.0      -0.0
  3 C                -5.7     -60.5     -32.4      -3.6       0.6      -0.3
  4 N               106.6     177.1     149.7     106.4     103.7     102.3
  5 C                -0.0       0.2      -4.0      -0.5      -0.2      -0.0
  6 O                -0.0       0.3      -0.8      -0.0      -0.0      -0.0
  9 H                -0.0      -0.1      -0.1      -0.0      -0.0      -0.0
 11 H                -0.5      -4.8      -9.5      -2.3      -4.0      -1.9
 12 H                -0.0      -1.1       0.0      -0.0      -0.0      -0.0

                     84        85        86        87        88        89   
                   0.00000   0.00000   0.00000   0.00000   0.00000   0.00000
                   0.00000   0.00000   0.01478   0.00621   0.00185   0.00136
                  --------  --------  --------  --------  --------  --------
  0 C                 0.0      -0.0       0.0      -0.2      -0.0      -0.0
  1 C                -0.0      -0.0      -0.2      -0.8      -0.1      -0.1
  2 N                -0.4      -0.1       1.0      -1.5       0.1      -0.1
  3 C                -2.7      -2.8     -29.3     -51.4      -8.9      -7.4
  4 N               108.3     103.6       1.1      -1.1      -0.7      -0.0
  5 C                -0.5      -0.0     169.1     168.5     151.2     112.1
  6 O                -0.1      -0.0     -38.5      -3.9      -4.8      -4.2
 10 H                -0.0      -0.0      -2.0      -0.0      -0.1      -0.1
 11 H                -4.5      -0.7      -0.1      -0.1      -0.0      -0.0
 12 H                -0.0      -0.0      -1.1      -9.6     -36.5      -0.2

                     90        91        92        93        94        95   
                   0.00000   0.00000   0.00000   0.00000   0.00000   0.00000
                   0.00109   0.00006   0.00005   0.00001   0.00000   0.00266
                  --------  --------  --------  --------  --------  --------
  0 C                -0.2      -0.0       0.0      -0.0      -0.0      -0.0
  1 C                -1.1      -0.1       0.0      -0.0      -0.0      -0.0
  2 N                -0.8      -0.1      -0.0      -0.0      -0.0      -0.0
  3 C               -65.7      -7.4      -0.3      -4.7      -2.1       0.5
  4 N                -0.9       0.7       0.0      -0.1      -0.1      -0.0
  5 C               177.3     115.0     104.2     106.8     105.5     -11.1
  6 O                -5.5      -2.1      -0.4      -1.3      -0.6     112.3
 10 H                -1.0       0.1       0.0      -0.0      -0.0      -1.4
 11 H                -0.2      -0.0      -0.0      -0.0      -0.0      -0.0
 12 H                -2.0      -6.0      -3.5      -0.7      -2.6      -0.2

                     96        97        98        99       100       101   
                   0.00000   0.00000   0.00000   0.00000   0.00000   0.00000
                   0.00024   0.00014   0.00003   0.00001   0.00001   0.00001
                  --------  --------  --------  --------  --------  --------
  2 N                -0.1      -0.6      -0.6      -0.2      -0.0      -0.0
  3 C                -0.0       0.7      -1.7      -0.4      -0.0      -0.1
  4 N                -0.0       0.2      -0.5      -0.2      -0.0      -0.1
  5 C                -3.8     -14.0     -14.0      -8.3      -2.5      -1.3
  6 O               104.1     115.0     117.8     109.7     102.9     101.5
 10 H                -0.0      -0.3       0.0      -0.2      -0.1      -0.0
 12 H                -0.2      -0.8      -1.0      -0.3      -0.2      -0.0

                    102       103       104       105       106       107   
                   0.00000   0.00000   0.00000   0.00000   0.00000   0.00000
                   0.00001   0.00000   0.00110   0.00030   0.00010   0.00004
                  --------  --------  --------  --------  --------  --------
  0 C                -0.0      -0.0     -42.3      -3.3      -3.4      -9.3
  1 C                -0.0      -0.0       1.0      -0.0      -0.5       0.3
  2 N                -0.0      -0.0       0.1      -0.0      -0.0      -0.0
  5 C                -0.9      -2.6       0.0      -0.0      -0.0       0.0
  6 O               100.9     102.6      -0.0      -0.0      -0.0      -0.0
  7 H                -0.0      -0.0     144.0     103.5     104.4     109.4
  8 H                -0.0      -0.0      -1.1      -0.1      -0.6      -0.2
  9 H                -0.0      -0.0      -1.6      -0.0       0.0      -0.2

                    108       109       110       111       112       113   
                   0.00000   0.00000   0.00000   0.00000   0.00000   0.00000
                   0.00165   0.00027   0.00010   0.00003   0.00445   0.00022
                  --------  --------  --------  --------  --------  --------
  0 C               -42.6      -3.2      -3.3      -8.6      -1.4      -0.1
  1 C                 0.6      -0.0      -0.4       0.1     -46.1      -3.1
  2 N                -0.5      -0.0      -0.0      -0.0      -1.2      -0.1
  3 C                -0.0      -0.0      -0.0       0.0      -1.1      -0.0
  4 N                 0.0      -0.0      -0.0      -0.0      -0.2      -0.0
  7 H                -1.2      -0.1      -0.6      -0.1      -1.5      -0.0
  8 H               145.6     103.4     104.3     108.9       0.1      -0.0
  9 H                 0.2      -0.0      -0.0      -0.0     158.8     103.4
 10 H                -2.0      -0.0      -0.0      -0.2      -0.0      -0.0
 11 H                -0.0      -0.0      -0.0      -0.0      -7.3       0.0

                    114       115       116       117       118       119   
                   0.00000   0.00000   0.00000   0.00000   0.00000   0.00000
                   0.00009   0.00003   0.00823   0.00044   0.00017   0.00006
                  --------  --------  --------  --------  --------  --------
  0 C                -0.2       0.7      -0.4      -0.0      -0.1      -0.0
  1 C                -7.6      -6.5      -2.9      -0.1      -0.2       0.1
  2 N                -0.2      -1.0      -8.9      -3.3      -3.7      -5.2
  3 C                -0.1      -0.0      -1.5      -0.1      -0.4      -0.6
  5 C                -0.0      -0.0      -2.4      -0.0      -0.1       0.0
  6 O                -0.0      -0.0      -1.6      -0.0      -0.1      -0.1
  7 H                -0.1      -0.0      -0.0      -0.0      -0.0      -0.0
  8 H                -0.0       0.0      -2.1      -0.0      -0.0      -0.1
  9 H               108.5     106.8      -0.1      -0.0      -0.0      -0.0
 10 H                -0.0      -0.0     120.1     103.6     104.6     105.9
 11 H                -0.3       0.0       0.0      -0.0      -0.0      -0.0

                    120       121       122       123       124       125   
                   0.00000   0.00000   0.00000   0.00000   0.00000   0.00000
                   0.00179   0.00080   0.00059   0.00003   0.00548   0.00008
                  --------  --------  --------  --------  --------  --------
  1 C                -0.7      -0.2      -0.0      -0.1      -0.0       0.0
  2 N                -0.4      -0.2      -0.0      -0.1       0.3      -0.0
  3 C                -6.2      -0.2      -0.1      -0.1       1.1      -0.1
  4 N                -9.5      -3.5      -3.1      -5.6      -1.8      -0.0
  5 C                 0.1      -0.4      -0.0      -0.0     -42.5      -8.2
  6 O                -0.0      -0.0      -0.0      -0.0      -1.2      -0.2
  9 H                -6.8      -0.5      -0.0      -0.6       0.0      -0.0
 11 H               123.6     105.1     103.2     106.6      -0.0      -0.0
 12 H                -0.0       0.0      -0.0      -0.0     144.4     108.4

                    126       127   
                   0.00000   0.00000
                   0.00006   0.00006
                  --------  --------
  3 C                -0.5      -0.5
  4 N                -0.1      -0.2
  5 C                -2.8      -2.8
  6 O                -0.7      -0.7
 12 H               104.1     104.2

Storing NBOs: 5367.nbo
                                    *** NBOs were stored ***

                                *** returned from GENNBO program ***

-------
TIMINGS
-------

Total SCF time: 0 days 0 hours 0 min 5 sec 

Total time                  ....       5.090 sec
Sum of individual times     ....       5.497 sec  (108.0%)

Fock matrix formation       ....       3.368 sec  ( 66.2%)
  Coulomb formation         ....       1.927 sec  ( 57.2% of F)
  Split-RI-J                ....       1.919 sec  ( 57.0% of F)
  XC integration            ....       1.436 sec  ( 42.6% of F)
    Basis function eval.    ....       0.493 sec  ( 34.3% of XC)
    Density eval.           ....       0.259 sec  ( 18.1% of XC)
    XC-Functional eval.     ....       0.102 sec  (  7.1% of XC)
    XC-Potential eval.      ....       0.537 sec  ( 37.4% of XC)
Diagonalization             ....       0.025 sec  (  0.5%)
Density matrix formation    ....       0.003 sec  (  0.1%)
Population analysis         ....       1.196 sec  ( 23.5%)
Initial guess               ....       0.309 sec  (  6.1%)
Orbital Transformation      ....       0.000 sec  (  0.0%)
Orbital Orthonormalization  ....       0.000 sec  (  0.0%)
DIIS solution               ....       0.007 sec  (  0.1%)
SOSCF solution              ....       0.010 sec  (  0.2%)
Grid generation             ....       0.580 sec  ( 11.4%)
           ************************************************************
           *              Shut down parallel processing               *
           ************************************************************

-------------------------   --------------------
FINAL SINGLE POINT ENERGY      -340.075105949021
-------------------------   --------------------


                            ***************************************
                            *     ORCA property calculations      *
                            ***************************************

                                    ---------------------
                                    Active property flags
                                    ---------------------
   (+) Dipole Moment


------------------------------------------------------------------------------
                       ORCA ELECTRIC PROPERTIES CALCULATION
------------------------------------------------------------------------------

Dipole Moment Calculation                       ... on
Quadrupole Moment Calculation                   ... off
Polarizability Calculation                      ... off
GBWName                                         ... 5367.gbw
Electron density file                           ... 5367.scfp.tmp

-------------
DIPOLE MOMENT
-------------
                                X             Y             Z
Electronic contribution:      3.83314       3.18158      -1.36935
Nuclear contribution   :     -4.46001      -3.61352       1.56187
                        -----------------------------------------
Total Dipole Moment    :     -0.62687      -0.43195       0.19251
                        -----------------------------------------
Magnitude (a.u.)       :      0.78524
Magnitude (Debye)      :      1.99592


Timings for individual modules:

Sum of individual times         ...        6.189 sec (=   0.103 min)
GTO integral calculation        ...        0.462 sec (=   0.008 min)   7.5 %
SCF iterations                  ...        5.726 sec (=   0.095 min)  92.5 %
                             ****ORCA TERMINATED NORMALLY****
TOTAL RUN TIME: 0 days 0 hours 0 minutes 6 seconds 584 msec
