
                                 *****************
                                 * O   R   C   A *
                                 *****************

           --- An Ab Initio, DFT and Semiempirical electronic structure package ---

                  #######################################################
                  #                        -***-                        #
                  #  Department of molecular theory and spectroscopy    #
                  #              Directorship: Frank Neese              #
                  # Max Planck Institute for Chemical Energy Conversion #
                  #                  D-45470 Muelheim/Ruhr              #
                  #                       Germany                       #
                  #                                                     #
                  #                  All rights reserved                #
                  #                        -***-                        #
                  #######################################################


                         Program Version 3.0.3 - RELEASE   -


 With contributions from (in alphabetic order):
   Ute Becker             : Parallelization
   Dmytro Bykov           : SCF Hessian
   Dmitry Ganyushin       : Spin-Orbit,Spin-Spin,Magnetic field MRCI
   Andreas Hansen         : Spin unrestricted coupled pair/coupled cluster methods
   Dimitrios Liakos       : Extrapolation schemes; parallel MDCI
   Robert Izsak           : Overlap fitted RIJCOSX, COSX-SCS-MP3
   Christian Kollmar      : KDIIS, OOCD, Brueckner-CCSD(T), CCSD density
   Simone Kossmann        : Meta GGA functionals, TD-DFT gradient, OOMP2, MP2 Hessian
   Taras Petrenko         : DFT Hessian,TD-DFT gradient, ASA and ECA modules, normal mode analysis, Resonance Raman, ABS, FL, XAS/XES, NRVS
   Christoph Reimann      : Effective Core Potentials
   Michael Roemelt        : Restricted open shell CIS
   Christoph Riplinger    : Improved optimizer, TS searches, QM/MM, DLPNO-CCSD
   Barbara Sandhoefer     : DKH picture change effects
   Igor Schapiro          : Molecular dynamics
   Kantharuban Sivalingam : CASSCF convergence, NEVPT2
   Boris Wezisla          : Elementary symmetry handling
   Frank Wennmohs         : Technical directorship


 We gratefully acknowledge several colleagues who have allowed us to
 interface, adapt or use parts of their codes:
   Stefan Grimme, W. Hujo, H. Kruse, T. Risthaus : VdW corrections, initial TS optimization,
                                                   DFT functionals, gCP
   Ed Valeev                                     : LibInt (2-el integral package), F12 methods
   Garnet Chan, S. Sharma, R. Olivares           : DMRG
   Ulf Ekstrom                                   : XCFun DFT Library
   Mihaly Kallay                                 : mrcc  (arbitrary order and MRCC methods)
   Andreas Klamt, Michael Diedenhofen            : otool_cosmo (COSMO solvation model)
   Frank Weinhold                                : gennbo (NPA and NBO analysis)
   Christopher J. Cramer and Donald G. Truhlar   : smd solvation model


 Your calculation uses the libint2 library for the computation of 2-el integrals
 For citations please refer to: http://libint.valeyev.net

 This ORCA versions uses:
   CBLAS   interface :  Fast vector & matrix operations
   LAPACKE interface :  Fast linear algebra routines
   SCALAPACK package :  Parallel linear algebra routines


Your calculation utilizes the basis: Ahlrichs-VDZ
Cite in your paper:
H - Kr: A. Schaefer, H. Horn and R. Ahlrichs, J. Chem. Phys. 97, 2571 (1992).

Your calculation utilizes the basis: Ahlrichs SVPalls1+f
Cite in your paper:
Rb - Xe: A. Schaefer, C. Huber and R. Ahlrichs, J. Chem. Phys. 100, 5829 (1994).

================================================================================
                                        WARNINGS
                       Please study these warnings very carefully!
================================================================================
Now building the actual basis set


INFO   : the flag for use of LIBINT has been found!

================================================================================
                                       INPUT FILE
================================================================================
NAME = 5393.inp
|  1> ! RI PBE def2-SVP def2-SVP/J NBO PAL2
|  2> % maxcore 2000
|  3> % output
|  4>     # printlevel mini
|  5>     print[ P_Basis ] 0
|  6>     print[ P_SCFInfo ] 1
|  7>     print[ P_SCFIterInfo ] 1
|  8>     print[ P_OrbEn ] 0
|  9>     print[ P_Cartesian ] 0
| 10> end
| 11> *xyz 0 1
| 12>  C        1.0143480000    -0.0654750000     0.1244120000 
| 13>  C        2.3403470000    -0.0521040000     0.0757780000 
| 14>  N        3.0977670000     1.1061980000    -0.0509790000 
| 15>  C        4.4551610000     1.0950110000    -0.0986350000 
| 16>  O        5.1596080000     0.1191460000    -0.0400610000 
| 17>  C        5.0220130000     2.4466850000    -0.2353800000 
| 18>  N        5.4852540000     3.4931940000    -0.3421150000 
| 19>  H        0.4886050000    -1.0041300000     0.2239860000 
| 20>  H        0.4208710000     0.8402780000     0.0677500000 
| 21>  H        2.9434460000    -0.9492600000     0.1313570000 
| 22>  H        2.6274820000     1.9963690000    -0.1107110000 
| 23> *
| 24> 
| 25>                          ****END OF INPUT****
================================================================================

                       ****************************
                       * Single Point Calculation *
                       ****************************

--------------------------------
INTERNAL COORDINATES (ANGSTROEM)
--------------------------------
 C      0   0   0   0.000000     0.000     0.000
 C      1   0   0   1.326958     0.000     0.000
 N      2   1   0   1.389754   123.804     0.000
 C      3   2   1   1.358276   122.751   180.001
 O      4   3   2   1.204985   126.100     0.000
 C      4   3   2   1.472088   112.365   179.992
 N      6   4   3   1.149420   178.880   179.974
 H      1   2   3   1.080460   119.892   180.000
 H      1   2   3   1.084350   122.451     0.000
 H      2   1   3   1.082454   123.129   180.000
 H      3   2   1   1.008534   119.137     0.000

---------------------------
INTERNAL COORDINATES (A.U.)
---------------------------
 C      0   0   0   0.000000     0.000     0.000
 C      1   0   0   2.507587     0.000     0.000
 N      2   1   0   2.626254   123.804     0.000
 C      3   2   1   2.566770   122.751   180.001
 O      4   3   2   2.277092   126.100     0.000
 C      4   3   2   2.781843   112.365   179.992
 N      6   4   3   2.172088   178.880   179.974
 H      1   2   3   2.041774   119.892   180.000
 H      1   2   3   2.049124   122.451     0.000
 H      2   1   3   2.045541   123.129   180.000
 H      3   2   1   1.905853   119.137     0.000



           ************************************************************
           *        Program running with 2 parallel MPI-processes     *
           *              working on a common directory               *
           ************************************************************
------------------------------------------------------------------------------
                           ORCA GTO INTEGRAL CALCULATION
                           -- RI-GTO INTEGRALS CHOSEN --
------------------------------------------------------------------------------

                         BASIS SET STATISTICS AND STARTUP INFO

Gaussian basis set:
 # of primitive gaussian shells          ...  104
 # of primitive gaussian functions       ...  196
 # of contracted shells                  ...   54
 # of contracted basis functions         ...  118
 Highest angular momentum                ...    2
 Maximum contraction depth               ...    5
Auxiliary gaussian basis set:
 # of primitive gaussian shells          ...  200
 # of primitive gaussian functions       ...  554
 # of contracted shells                  ...  125
 # of contracted aux-basis functions     ...  387
 Highest angular momentum                ...    4
 Maximum contraction depth               ...    7
Ratio of auxiliary to basis functions    ...  3.28
Integral package used                  ... LIBINT
 One Electron integrals                  ... done
 Ordering auxiliary basis shells         ... done
 Integral threshhold             Thresh  ...  1.000e-10
 Primitive cut-off               TCut    ...  1.000e-11
 Pre-screening matrix                    ... done
 Shell pair data                         ... 
 Ordering of the shell pairs             ... done (   0.000 sec) 1382 of 1485 pairs
 Determination of significant pairs      ... done (   0.000 sec)
 Creation of shell pair data             ... done (   0.000 sec)
 Storage of shell pair data              ... done (   0.000 sec)
 Shell pair data done in (   0.001 sec)
 Computing two index integrals           ... done
 Cholesky decomposition of the V-matrix  ... done


Timings:
 Total evaluation time                   ...   0.140 sec (  0.002 min)
 One electron matrix time                ...   0.011 sec (  0.000 min) =  7.7%
 Schwartz matrix evaluation time         ...   0.068 sec (  0.001 min) = 48.6%
 Two index repulsion integral time       ...   0.003 sec (  0.000 min) =  2.1%
 Cholesky decomposition of V             ...   0.002 sec (  0.000 min) =  1.7%
 Three index repulsion integral time     ...   0.000 sec (  0.000 min) =  0.0%

           ************************************************************
           *              Shut down parallel processing               *
           ************************************************************


           ************************************************************
           *        Program running with 2 parallel MPI-processes     *
           *              working on a common directory               *
           ************************************************************
-------------------------------------------------------------------------------
                                 ORCA SCF
-------------------------------------------------------------------------------

------------
SCF SETTINGS
------------
Hamiltonian:
 Density Functional     Method          .... DFT(GTOs)
 Exchange Functional    Exchange        .... PBE
   PBE kappa parameter  XKappa          ....  0.804000
 Correlation Functional Correlation     .... PBE
 LDA part of GGA corr.  LDAOpt          .... PW91-LDA
 Gradients option       PostSCFGGA      .... off
   NL short-range parameter             ....  6.400000
 RI-approximation to the Coulomb term is turned on
   Number of auxiliary basis functions  .... 387


General Settings:
 Integral files         IntName         .... 5393
 Hartree-Fock type      HFTyp           .... RHF
 Total Charge           Charge          ....    0
 Multiplicity           Mult            ....    1
 Number of Electrons    NEL             ....   50
 Basis Dimension        Dim             ....  118
 Nuclear Repulsion      ENuc            ....    254.1014316369 Eh

Convergence Acceleration:
 DIIS                   CNVDIIS         .... on
   Start iteration      DIISMaxIt       ....    12
   Startup error        DIISStart       ....  0.200000
   # of expansion vecs  DIISMaxEq       ....     5
   Bias factor          DIISBfac        ....   1.050
   Max. coefficient     DIISMaxC        ....  10.000
 Newton-Raphson         CNVNR           .... off
 SOSCF                  CNVSOSCF        .... on
   Start iteration      SOSCFMaxIt      ....   150
   Startup grad/error   SOSCFStart      ....  0.003300
 Level Shifting         CNVShift        .... on
   Level shift para.    LevelShift      ....    0.2500
   Turn off err/grad.   ShiftErr        ....    0.0010
 Zerner damping         CNVZerner       .... off
 Static damping         CNVDamp         .... on
   Fraction old density DampFac         ....    0.7000
   Max. Damping (<1)    DampMax         ....    0.9800
   Min. Damping (>=0)   DampMin         ....    0.0000
   Turn off err/grad.   DampErr         ....    0.1000
 Fernandez-Rico         CNVRico         .... off

SCF Procedure:
 Maximum # iterations   MaxIter         ....   125
 SCF integral mode      SCFMode         .... Direct
   Integral package                     .... LIBINT
 Reset frequeny         DirectResetFreq ....    20
 Integral Threshold     Thresh          ....  1.000e-10 Eh
 Primitive CutOff       TCut            ....  1.000e-11 Eh

Convergence Tolerance:
 Convergence Check Mode ConvCheckMode   .... Total+1el-Energy
 Energy Change          TolE            ....  1.000e-06 Eh
 1-El. energy change                    ....  1.000e-03 Eh
 Orbital Gradient       TolG            ....  5.000e-05
 Orbital Rotation angle TolX            ....  5.000e-05
 DIIS Error             TolErr          ....  1.000e-06


Diagonalization of the overlap matrix:
Smallest eigenvalue                        ... 8.331e-04
Time for diagonalization                   ...    0.010 sec
Threshold for overlap eigenvalues          ... 1.000e-08
Number of eigenvalues below threshold      ... 0
Time for construction of square roots      ...    0.002 sec
Total time needed                          ...    0.013 sec

-------------------
DFT GRID GENERATION
-------------------

General Integration Accuracy     IntAcc      ...  4.340
Radial Grid Type                 RadialGrid  ... Gauss-Chebyshev
Angular Grid (max. acc.)         AngularGrid ... Lebedev-110
Angular grid pruning method      GridPruning ... 3 (G Style)
Weight generation scheme         WeightScheme... Becke
Basis function cutoff            BFCut       ...    1.0000e-10
Integration weight cutoff        WCut        ...    1.0000e-14
Grids for H and He will be reduced by one unit

# of grid points (after initial pruning)     ...  14920 (   0.0 sec)
# of grid points (after weights+screening)   ...  14231 (   0.0 sec)
nearest neighbour list constructed           ...    0.0 sec
Grid point re-assignment to atoms done       ...    0.0 sec
Grid point division into batches done        ...    0.0 sec
Reduced shell lists constructed in    0.1 sec

Total number of grid points                  ...    14231
Total number of batches                      ...      228
Average number of points per batch           ...       62
Average number of grid points per atom       ...     1294
Average number of shells per batch           ...    41.95 (77.68%)
Average number of basis functions per batch  ...    92.38 (78.29%)
Average number of large shells per batch     ...    34.79 (82.94%)
Average number of large basis fcns per batch ...    75.56 (81.79%)
Maximum spatial batch extension              ...  19.79, 16.09, 27.05 au
Average spatial batch extension              ...   1.43,  1.26,  2.05 au

Time for grid setup =    0.106 sec

------------------------------
INITIAL GUESS: MODEL POTENTIAL
------------------------------
Loading Hartree-Fock densities                     ... done
Calculating cut-offs                               ... done
Setting up the integral package                    ... done
Initializing the effective Hamiltonian             ... done
Starting the Coulomb interaction                   ... done (   0.0 sec)
Reading the grid                                   ... done
Mapping shells                                     ... done
Starting the XC term evaluation                    ... done (   0.1 sec)
  promolecular density results
     # of electrons  =     49.998103320
     EX              =    -42.791548904
     EC              =     -1.644767908
     EX+EC           =    -44.436316812
Transforming the Hamiltonian                       ... done (   0.0 sec)
Diagonalizing the Hamiltonian                      ... done (   0.0 sec)
Back transforming the eigenvectors                 ... done (   0.0 sec)
Now organizing SCF variables                       ... done
                      ------------------
                      INITIAL GUESS DONE (   0.3 sec)
                      ------------------
--------------
SCF ITERATIONS
--------------
ITER       Energy         Delta-E        Max-DP      RMS-DP      [F,P]     Damp
               ***  Starting incremental Fock matrix formation  ***
  0   -338.6509113027   0.000000000000 0.10530507  0.00455179  0.2600618 0.7000
  1   -338.7715743542  -0.120663051511 0.05533260  0.00249297  0.0755914 0.7000
                               ***Turning on DIIS***
  2   -338.7985283945  -0.026954040295 0.09827959  0.00300228  0.0499352 0.0000
  3   -338.8706433710  -0.072114976570 0.03921573  0.00174149  0.0468706 0.0000
  4   -338.8766417350  -0.005998364003 0.01738880  0.00054273  0.0431802 0.0000
  5   -338.8795598879  -0.002918152888 0.00433240  0.00019042  0.0081255 0.0000
  6   -338.8797323115  -0.000172423547 0.00181306  0.00006265  0.0044927 0.0000
                      *** Initiating the SOSCF procedure ***
                           *** Shutting down DIIS ***
                      *** Re-Reading the Fockian *** 
                      *** Removing any level shift *** 
ITER      Energy       Delta-E        Grad      Rot      Max-DP    RMS-DP
  7   -338.87975580  -0.0000234929  0.000150  0.000150  0.001451  0.000045
               *** Restarting incremental Fock matrix formation ***
  8   -338.87975400   0.0000018008  0.000445  0.003318  0.004174  0.000112
  9   -338.87972143   0.0000325705  0.001601  0.002418  0.003242  0.000086
 10   -338.87975716  -0.0000357223  0.000054  0.000241  0.000364  0.000012
 11   -338.87975692   0.0000002386  0.000137  0.000219  0.000272  0.000008
 12   -338.87975723  -0.0000003144  0.000039  0.000177  0.000197  0.000006
                 **** Energy Check signals convergence ****
              ***Rediagonalizing the Fockian in SOSCF/NRSCF***

               *****************************************************
               *                     SUCCESS                       *
               *           SCF CONVERGED AFTER  13 CYCLES          *
               *****************************************************

Setting up the final grid:

General Integration Accuracy     IntAcc      ...  4.670
Radial Grid Type                 RadialGrid  ... Gauss-Chebyshev
Angular Grid (max. acc.)         AngularGrid ... Lebedev-302
Angular grid pruning method      GridPruning ... 3 (G Style)
Weight generation scheme         WeightScheme... Becke
Basis function cutoff            BFCut       ...    1.0000e-10
Integration weight cutoff        WCut        ...    1.0000e-14
Grids for H and He will be reduced by one unit

# of grid points (after initial pruning)     ...  57060 (   0.0 sec)
# of grid points (after weights+screening)   ...  53788 (   0.0 sec)
nearest neighbour list constructed           ...    0.0 sec
Grid point re-assignment to atoms done       ...    0.0 sec
Grid point division into batches done        ...    0.2 sec
Reduced shell lists constructed in    0.4 sec

Total number of grid points                  ...    53788
Total number of batches                      ...      847
Average number of points per batch           ...       63
Average number of grid points per atom       ...     4890
Average number of shells per batch           ...    39.25 (72.68%)
Average number of basis functions per batch  ...    85.72 (72.65%)
Average number of large shells per batch     ...    31.59 (80.49%)
Average number of large basis fcns per batch ...    68.00 (79.33%)
Maximum spatial batch extension              ...  17.87, 15.20, 22.75 au
Average spatial batch extension              ...   0.93,  0.91,  1.19 au

Final grid set up in    0.4 sec
Final integration                            ... done (   0.2 sec)
Change in XC energy                          ...    -0.000399403
Integrated number of electrons               ...    49.999970621
Previous integrated no of electrons          ...    49.998832099

----------------
TOTAL SCF ENERGY
----------------

Total Energy       :         -338.88015653 Eh           -9221.39787 eV

Components:
Nuclear Repulsion  :          254.10143164 Eh            6914.45148 eV
Electronic Energy  :         -592.98158817 Eh          -16135.84934 eV

One Electron Energy:         -962.09553043 Eh          -26179.95035 eV
Two Electron Energy:          369.11394226 Eh           10044.10100 eV

Virial components:
Potential Energy   :         -675.02229151 Eh          -18368.29038 eV
Kinetic Energy     :          336.14213498 Eh            9146.89251 eV
Virial Ratio       :            2.00814543


DFT components:
N(Alpha)           :       24.999985310387 electrons
N(Beta)            :       24.999985310387 electrons
N(Total)           :       49.999970620773 electrons
E(X)               :      -43.434121704331 Eh       
E(C)               :       -1.665539222653 Eh       
E(XC)              :      -45.099660926984 Eh       

---------------
SCF CONVERGENCE
---------------

  Last Energy change         ...    1.0348e-07  Tolerance :   1.0000e-06
  Last MAX-Density change    ...    1.3232e-04  Tolerance :   1.0000e-05
  Last RMS-Density change    ...    4.2336e-06  Tolerance :   1.0000e-06
  Last Orbital Gradient      ...    9.6285e-05  Tolerance :   5.0000e-05
  Last Orbital Rotation      ...    9.9590e-05  Tolerance :   5.0000e-05

             **** THE GBW FILE WAS UPDATED (5393.gbw) ****
             **** DENSITY FILE WAS UPDATED (5393.scfp.tmp) ****
             **** ENERGY FILE WAS UPDATED (5393.en.tmp) ****

                    ********************************
                    * MULLIKEN POPULATION ANALYSIS *
                    ********************************

-----------------------
MULLIKEN ATOMIC CHARGES
-----------------------
   0 C :   -0.045611
   1 C :    0.044761
   2 N :   -0.062812
   3 C :    0.052589
   4 O :   -0.147519
   5 C :   -0.165788
   6 N :    0.072766
   7 H :    0.046722
   8 H :    0.027665
   9 H :    0.041197
  10 H :    0.136029
Sum of atomic charges:   -0.0000000

--------------------------------
MULLIKEN REDUCED ORBITAL CHARGES
--------------------------------
  0 C s       :     3.095725  s :     3.095725
      pz      :     1.043293  p :     2.927373
      px      :     0.961220
      py      :     0.922860
      dz2     :     0.001518  d :     0.022513
      dxz     :     0.005135
      dyz     :     0.000099
      dx2y2   :     0.007039
      dxy     :     0.008722
  1 C s       :     3.115001  s :     3.115001
      pz      :     0.994249  p :     2.792355
      px      :     0.909436
      py      :     0.888670
      dz2     :     0.003558  d :     0.047883
      dxz     :     0.009655
      dyz     :     0.005510
      dx2y2   :     0.010282
      dxy     :     0.018878
  2 N s       :     3.329998  s :     3.329998
      pz      :     1.572907  p :     3.711628
      px      :     1.068213
      py      :     1.070509
      dz2     :     0.002180  d :     0.021186
      dxz     :     0.004134
      dyz     :     0.001949
      dx2y2   :     0.007038
      dxy     :     0.005885
  3 C s       :     3.016175  s :     3.016175
      pz      :     0.917438  p :     2.811138
      px      :     0.908253
      py      :     0.985447
      dz2     :     0.006074  d :     0.120098
      dxz     :     0.020945
      dyz     :     0.014212
      dx2y2   :     0.051542
      dxy     :     0.027325
  4 O s       :     3.745940  s :     3.745940
      pz      :     1.376989  p :     4.383023
      px      :     1.574589
      py      :     1.431445
      dz2     :     0.002089  d :     0.018556
      dxz     :     0.002089
      dyz     :     0.003837
      dx2y2   :     0.004384
      dxy     :     0.006157
  5 C s       :     3.160957  s :     3.160957
      pz      :     0.971211  p :     2.967253
      px      :     0.998186
      py      :     0.997856
      dz2     :     0.003447  d :     0.037577
      dxz     :     0.002122
      dyz     :     0.010760
      dx2y2   :     0.010755
      dxy     :     0.010494
  6 N s       :     3.577949  s :     3.577949
      pz      :     1.005587  p :     3.317908
      px      :     1.066506
      py      :     1.245815
      dz2     :     0.003004  d :     0.031377
      dxz     :     0.001720
      dyz     :     0.008150
      dx2y2   :     0.009367
      dxy     :     0.009136
  7 H s       :     0.928478  s :     0.928478
      pz      :     0.005892  p :     0.024800
      px      :     0.006901
      py      :     0.012007
  8 H s       :     0.947760  s :     0.947760
      pz      :     0.005729  p :     0.024574
      px      :     0.007796
      py      :     0.011049
  9 H s       :     0.935235  s :     0.935235
      pz      :     0.004790  p :     0.023569
      px      :     0.007590
      py      :     0.011189
 10 H s       :     0.820048  s :     0.820048
      pz      :     0.011493  p :     0.043923
      px      :     0.010921
      py      :     0.021508


                     *******************************
                     * LOEWDIN POPULATION ANALYSIS *
                     *******************************

----------------------
LOEWDIN ATOMIC CHARGES
----------------------
   0 C :   -0.080481
   1 C :    0.021433
   2 N :    0.060376
   3 C :    0.003237
   4 O :   -0.123212
   5 C :   -0.067789
   6 N :   -0.015256
   7 H :    0.039145
   8 H :    0.026862
   9 H :    0.039959
  10 H :    0.095725

-------------------------------
LOEWDIN REDUCED ORBITAL CHARGES
-------------------------------
  0 C s       :     2.878265  s :     2.878265
      pz      :     1.024489  p :     3.136802
      px      :     1.063543
      py      :     1.048771
      dz2     :     0.004722  d :     0.065414
      dxz     :     0.010450
      dyz     :     0.000244
      dx2y2   :     0.022011
      dxy     :     0.027987
  1 C s       :     2.852396  s :     2.852396
      pz      :     0.974912  p :     3.004962
      px      :     1.065747
      py      :     0.964304
      dz2     :     0.008336  d :     0.121209
      dxz     :     0.021482
      dyz     :     0.011808
      dx2y2   :     0.028312
      dxy     :     0.051271
  2 N s       :     3.046012  s :     3.046012
      pz      :     1.504649  p :     3.835785
      px      :     1.162109
      py      :     1.169028
      dz2     :     0.004973  d :     0.057827
      dxz     :     0.008010
      dyz     :     0.003720
      dx2y2   :     0.021834
      dxy     :     0.019288
  3 C s       :     2.825807  s :     2.825807
      pz      :     0.901207  p :     2.888660
      px      :     0.975163
      py      :     1.012289
      dz2     :     0.015100  d :     0.282296
      dxz     :     0.042403
      dyz     :     0.027398
      dx2y2   :     0.128196
      dxy     :     0.069200
  4 O s       :     3.545887  s :     3.545887
      pz      :     1.380707  p :     4.544783
      px      :     1.632819
      py      :     1.531257
      dz2     :     0.004532  d :     0.032542
      dxz     :     0.002799
      dyz     :     0.005107
      dx2y2   :     0.007049
      dxy     :     0.013055
  5 C s       :     2.941245  s :     2.941245
      pz      :     0.945747  p :     3.028614
      px      :     0.971030
      py      :     1.111837
      dz2     :     0.011464  d :     0.097930
      dxz     :     0.004582
      dyz     :     0.022807
      dx2y2   :     0.029777
      dxy     :     0.029300
  6 N s       :     3.428622  s :     3.428622
      pz      :     1.016669  p :     3.532329
      px      :     1.110337
      py      :     1.405323
      dz2     :     0.006493  d :     0.054305
      dxz     :     0.002499
      dyz     :     0.011964
      dx2y2   :     0.016410
      dxy     :     0.016939
  7 H s       :     0.889508  s :     0.889508
      pz      :     0.017534  p :     0.071348
      px      :     0.017786
      py      :     0.036028
  8 H s       :     0.902436  s :     0.902436
      pz      :     0.016787  p :     0.070702
      px      :     0.020683
      py      :     0.033232
  9 H s       :     0.887621  s :     0.887621
      pz      :     0.014247  p :     0.072420
      px      :     0.023350
      py      :     0.034823
 10 H s       :     0.780767  s :     0.780767
      pz      :     0.036275  p :     0.123508
      px      :     0.028575
      py      :     0.058659


                      *****************************
                      * MAYER POPULATION ANALYSIS *
                      *****************************

  NA   - Mulliken gross atomic population
  ZA   - Total nuclear charge
  QA   - Mulliken gross atomic charge
  VA   - Mayer's total valence
  BVA  - Mayer's bonded valence
  FA   - Mayer's free valence

  ATOM       NA         ZA         QA         VA         BVA        FA
  0 C      6.0456     6.0000    -0.0456     3.8927     3.8927    -0.0000
  1 C      5.9552     6.0000     0.0448     4.0834     4.0834    -0.0000
  2 N      7.0628     7.0000    -0.0628     3.3297     3.3297    -0.0000
  3 C      5.9474     6.0000     0.0526     4.3429     4.3429    -0.0000
  4 O      8.1475     8.0000    -0.1475     2.3821     2.3821     0.0000
  5 C      6.1658     6.0000    -0.1658     3.9235     3.9235    -0.0000
  6 N      6.9272     7.0000     0.0728     3.1961     3.1961     0.0000
  7 H      0.9533     1.0000     0.0467     0.9832     0.9832    -0.0000
  8 H      0.9723     1.0000     0.0277     0.9873     0.9873    -0.0000
  9 H      0.9588     1.0000     0.0412     1.0211     1.0211     0.0000
 10 H      0.8640     1.0000     0.1360     0.9998     0.9998    -0.0000

  Mayer bond orders larger than 0.1
B(  0-C ,  1-C ) :   1.8986 B(  0-C ,  7-H ) :   0.9420 B(  0-C ,  8-H ) :   0.9491 
B(  1-C ,  2-N ) :   1.0939 B(  1-C ,  9-H ) :   0.9576 B(  2-N ,  3-C ) :   1.2136 
B(  2-N ,  4-O ) :   0.1000 B(  2-N , 10-H ) :   0.9136 B(  3-C ,  4-O ) :   2.1025 
B(  3-C ,  5-C ) :   0.9059 B(  5-C ,  6-N ) :   3.0463 


 *********************************** NBO 6.0 ***********************************
             N A T U R A L   A T O M I C   O R B I T A L   A N D
          N A T U R A L   B O N D   O R B I T A L   A N A L Y S I S
 ***************************** Kiya KiyaLu (100703) ****************************
  (c) Copyright 1996-2015 Board of Regents of the University of Wisconsin System
      on behalf of the Theoretical Chemistry Institute.  All rights reserved.

          Cite this program as:

          NBO 6.0.  E. D. Glendening, J. K. Badenhoop, A. E. Reed,
          J. E. Carpenter, J. A. Bohmann, C. M. Morales, C. R. Landis,
          and F. Weinhold (Theoretical Chemistry Institute, University
          of Wisconsin, Madison, WI, 2013); http://nbo6.chem.wisc.edu/

       /NPA    / : Natural Population Analysis
       /NBO    / : Natural Bond Orbital Analysis
       /AONBO  / : Write the AO to NBO transformation to lfn77
       /FILE   / : Set to 5393

 Filename set to 5393

 Job title:  *** NBO job generated by orca_scf

 Warning: MOs are non-orthogonal; program will continue

 Warning: -2531.01096 electrons reside outside the linearly independent MO space


 NATURAL POPULATIONS:  Natural atomic orbital occupancies

  NAO Atom No lang   Type(AO)    Occupancy      Energy
 -------------------------------------------------------
   1    C  1  s      Cor( 1s)     1.99902      -9.79294
   2    C  1  s      Val( 2s)     1.04605      -0.20232
   3    C  1  s      Ryd( 3s)     0.00073       0.51621
   4    C  1  px     Val( 2p)     1.12026      -0.05828
   5    C  1  px     Ryd( 3p)     0.00208       0.46045
   6    C  1  py     Val( 2p)     1.21072      -0.05940
   7    C  1  py     Ryd( 3p)     0.00333       0.80397
   8    C  1  pz     Val( 2p)     1.05802      -0.13708
   9    C  1  pz     Ryd( 3p)     0.00168       0.46500
  10    C  1  dxy    Ryd( 3d)     0.00051       2.42488
  11    C  1  dxz    Ryd( 3d)     0.00064       1.87498
  12    C  1  dyz    Ryd( 3d)     0.00003       1.78998
  13    C  1  dx2y2  Ryd( 3d)     0.00071       2.32790
  14    C  1  dz2    Ryd( 3d)     0.00052       2.10363

  15    C  2  s      Cor( 1s)     1.99895      -9.83703
  16    C  2  s      Val( 2s)     0.92050      -0.17122
  17    C  2  s      Ryd( 3s)     0.00279       0.43230
  18    C  2  px     Val( 2p)     1.09166      -0.07727
  19    C  2  px     Ryd( 3p)     0.00724       0.71516
  20    C  2  py     Val( 2p)     0.99242      -0.06374
  21    C  2  py     Ryd( 3p)     0.00285       0.71383
  22    C  2  pz     Val( 2p)     1.00475      -0.14664
  23    C  2  pz     Ryd( 3p)     0.00175       0.47221
  24    C  2  dxy    Ryd( 3d)     0.00131       2.41203
  25    C  2  dxz    Ryd( 3d)     0.00101       1.85795
  26    C  2  dyz    Ryd( 3d)     0.00055       1.80057
  27    C  2  dx2y2  Ryd( 3d)     0.00077       2.34686
  28    C  2  dz2    Ryd( 3d)     0.00064       2.10237

  29    N  3  s      Cor( 1s)     1.99912     -13.92533
  30    N  3  s      Val( 2s)     1.24749      -0.51235
  31    N  3  s      Ryd( 3s)     0.00175       1.00596
  32    N  3  px     Val( 2p)     1.34089      -0.28242
  33    N  3  px     Ryd( 3p)     0.00165       1.08539
  34    N  3  py     Val( 2p)     1.38891      -0.27320
  35    N  3  py     Ryd( 3p)     0.00198       1.14622
  36    N  3  pz     Val( 2p)     1.60869      -0.26779
  37    N  3  pz     Ryd( 3p)     0.00195       0.74057
  38    N  3  dxy    Ryd( 3d)     0.00063       2.73249
  39    N  3  dxz    Ryd( 3d)     0.00053       2.17639
  40    N  3  dyz    Ryd( 3d)     0.00026       2.17538
  41    N  3  dx2y2  Ryd( 3d)     0.00081       2.70448
  42    N  3  dz2    Ryd( 3d)     0.00064       2.48690

  43    C  4  s      Cor( 1s)     1.99915      -9.93212
  44    C  4  s      Val( 2s)     0.74690      -0.14160
  45    C  4  s      Ryd( 3s)     0.00346       0.36911
  46    C  4  px     Val( 2p)     0.84179      -0.04291
  47    C  4  px     Ryd( 3p)     0.00852       0.57839
  48    C  4  py     Val( 2p)     0.90738      -0.07334
  49    C  4  py     Ryd( 3p)     0.01248       0.64988
  50    C  4  pz     Val( 2p)     0.89543      -0.17219
  51    C  4  pz     Ryd( 3p)     0.00138       0.48544
  52    C  4  dxy    Ryd( 3d)     0.00197       2.36544
  53    C  4  dxz    Ryd( 3d)     0.00246       1.82382
  54    C  4  dyz    Ryd( 3d)     0.00173       1.82897
  55    C  4  dx2y2  Ryd( 3d)     0.00492       2.32178
  56    C  4  dz2    Ryd( 3d)     0.00078       2.03389

  57    O  5  s      Cor( 1s)     1.99974     -18.51807
  58    O  5  s      Val( 2s)     1.68988      -0.80755
  59    O  5  s      Ryd( 3s)     0.00124       1.52997
  60    O  5  px     Val( 2p)     1.74031      -0.25143
  61    O  5  px     Ryd( 3p)     0.00175       1.08853
  62    O  5  py     Val( 2p)     1.65332      -0.27210
  63    O  5  py     Ryd( 3p)     0.00110       1.05725
  64    O  5  pz     Val( 2p)     1.42408      -0.24367
  65    O  5  pz     Ryd( 3p)     0.00103       0.99750
  66    O  5  dxy    Ryd( 3d)     0.00234       3.04800
  67    O  5  dxz    Ryd( 3d)     0.00082       2.59260
  68    O  5  dyz    Ryd( 3d)     0.00152       2.64713
  69    O  5  dx2y2  Ryd( 3d)     0.00234       2.83651
  70    O  5  dz2    Ryd( 3d)     0.00078       2.73113

  71    C  6  s      Cor( 1s)     1.99914      -9.83411
  72    C  6  s      Val( 2s)     0.87853      -0.16316
  73    C  6  s      Ryd( 3s)     0.00878       0.55150
  74    C  6  px     Val( 2p)     0.95827      -0.10304
  75    C  6  px     Ryd( 3p)     0.00638       0.53861
  76    C  6  py     Val( 2p)     0.98898      -0.00303
  77    C  6  py     Ryd( 3p)     0.01606       0.58324
  78    C  6  pz     Val( 2p)     0.94506      -0.12801
  79    C  6  pz     Ryd( 3p)     0.00071       0.48340
  80    C  6  dxy    Ryd( 3d)     0.00106       2.36576
  81    C  6  dxz    Ryd( 3d)     0.00023       1.70028
  82    C  6  dyz    Ryd( 3d)     0.00108       2.04005
  83    C  6  dx2y2  Ryd( 3d)     0.00094       2.34424
  84    C  6  dz2    Ryd( 3d)     0.00026       1.96755

  85    N  7  s      Cor( 1s)     1.99960     -13.77515
  86    N  7  s      Val( 2s)     1.59406      -0.53896
  87    N  7  s      Ryd( 3s)     0.00769       1.15116
  88    N  7  px     Val( 2p)     1.14359      -0.16782
  89    N  7  px     Ryd( 3p)     0.00053       0.79790
  90    N  7  py     Val( 2p)     1.46328      -0.18077
  91    N  7  py     Ryd( 3p)     0.00224       0.76528
  92    N  7  pz     Val( 2p)     1.04651      -0.16645
  93    N  7  pz     Ryd( 3p)     0.00034       0.77635
  94    N  7  dxy    Ryd( 3d)     0.00289       2.51908
  95    N  7  dxz    Ryd( 3d)     0.00051       2.10806
  96    N  7  dyz    Ryd( 3d)     0.00237       2.26691
  97    N  7  dx2y2  Ryd( 3d)     0.00293       2.48498
  98    N  7  dz2    Ryd( 3d)     0.00101       2.27051

  99    H  8  s      Val( 1s)     0.77104       0.05163
 100    H  8  s      Ryd( 2s)     0.00097       0.29741
 101    H  8  px     Ryd( 2p)     0.00028       1.89443
 102    H  8  py     Ryd( 2p)     0.00069       2.18567
 103    H  8  pz     Ryd( 2p)     0.00027       1.56655

 104    H  9  s      Val( 1s)     0.79254       0.03358
 105    H  9  s      Ryd( 2s)     0.00165       0.30142
 106    H  9  px     Ryd( 2p)     0.00036       1.92088
 107    H  9  py     Ryd( 2p)     0.00060       2.14657
 108    H  9  pz     Ryd( 2p)     0.00027       1.55699

 109    H 10  s      Val( 1s)     0.75584       0.05237
 110    H 10  s      Ryd( 2s)     0.00373       0.31580
 111    H 10  px     Ryd( 2p)     0.00038       1.98681
 112    H 10  py     Ryd( 2p)     0.00076       2.15183
 113    H 10  pz     Ryd( 2p)     0.00017       1.56182

 114    H 11  s      Val( 1s)     0.57719       0.03607
 115    H 11  s      Ryd( 2s)     0.00287       0.35330
 116    H 11  px     Ryd( 2p)     0.00040       1.93635
 117    H 11  py     Ryd( 2p)     0.00114       2.21236
 118    H 11  pz     Ryd( 2p)     0.00046       1.56921

   1 low occupancy (<1.9990e) core orbital  found on  C  2


 Summary of Natural Population Analysis:

                                     Natural Population
             Natural    ---------------------------------------------
  Atom No    Charge        Core      Valence    Rydberg      Total
 --------------------------------------------------------------------
    C  1   -0.44429      1.99902     4.43505    0.01022     6.44429
    C  2   -0.02719      1.99895     4.00933    0.01891     6.02719
    N  3   -0.59529      1.99912     5.58597    0.01020     7.59529
    C  4    0.57166      1.99915     3.39150    0.03770     5.42834
    O  5   -0.52025      1.99974     6.50759    0.01292     8.52025
    C  6    0.19452      1.99914     3.77084    0.03550     5.80548
    N  7   -0.26754      1.99960     5.24745    0.02050     7.26754
    H  8    0.22675      0.00000     0.77104    0.00222     0.77325
    H  9    0.20457      0.00000     0.79254    0.00288     0.79543
    H 10    0.23911      0.00000     0.75584    0.00505     0.76089
    H 11    0.41794      0.00000     0.57719    0.00487     0.58206
 ====================================================================
 * Total *  0.00000     13.99471    35.84433    0.16097    50.00000

                                 Natural Population
 ---------------------------------------------------------
   Core                      13.99471 ( 99.9622% of   14)
   Valence                   35.84433 ( 99.5676% of   36)
   Natural Minimal Basis     49.83903 ( 99.6781% of   50)
   Natural Rydberg Basis      0.16097 (  0.3219% of   50)
 ---------------------------------------------------------

    Atom No         Natural Electron Configuration
 ----------------------------------------------------------------------------
      C  1      [core]2s( 1.05)2p( 3.39)3p( 0.01)
      C  2      [core]2s( 0.92)2p( 3.09)3p( 0.01)
      N  3      [core]2s( 1.25)2p( 4.34)3p( 0.01)
      C  4      [core]2s( 0.75)2p( 2.64)3p( 0.02)3d( 0.01)
      O  5      [core]2s( 1.69)2p( 4.82)3d( 0.01)
      C  6      [core]2s( 0.88)2p( 2.89)3s( 0.01)3p( 0.02)
      N  7      [core]2s( 1.59)2p( 3.65)3s( 0.01)3d( 0.01)
      H  8            1s( 0.77)
      H  9            1s( 0.79)
      H 10            1s( 0.76)
      H 11            1s( 0.58)


 NATURAL BOND ORBITAL ANALYSIS:

                            Occupancies       Lewis Structure    Low   High
         Max    Occ     -------------------  -----------------   occ   occ
  Cycle  Ctr   Thresh    Lewis   non-Lewis     CR  BD  nC  LP    (L)   (NL)
 ============================================================================
    1     2     1.90    49.04985   0.95015      7  14   0   4     2      2
    2     2     1.89    49.04985   0.95015      7  14   0   4     2      2
    3     2     1.88    49.04985   0.95015      7  14   0   4     2      2
    4     2     1.84    49.04985   0.95015      7  14   0   4     2      2
    5     2     1.81    49.07946   0.92054      7  14   0   4     1      2
    6     2     1.79    49.07946   0.92054      7  14   0   4     1      2
    7     2     1.68    49.07946   0.92054      7  14   0   4     1      2
    8     2     1.61    49.07946   0.92054      7  14   0   4     0      2
    9     2     1.51    49.07946   0.92054      7  14   0   4     0      2
   10     2     1.81    49.07946   0.92054      7  14   0   4     1      2
 ----------------------------------------------------------------------------

 Strongly delocalized structure accepted

 -------------------------------------------------------
   Core                     13.99471 ( 99.962% of  14)
   Valence Lewis            35.08475 ( 97.458% of  36)
  ==================      =============================
   Total Lewis              49.07946 ( 98.159% of  50)
  -----------------------------------------------------
   Valence non-Lewis         0.81860 (  1.637% of  50)
   Rydberg non-Lewis         0.10194 (  0.204% of  50)
  ==================      =============================
   Total non-Lewis           0.92054 (  1.841% of  50)
 -------------------------------------------------------


     (Occupancy)   Bond orbital / Coefficients / Hybrids
 ------------------ Lewis ------------------------------------------------------
   1. (1.99902) CR ( 1) C  1            s(100.00%)
                                         1.0000  0.0000  0.0000  0.0000  0.0000
                                         0.0000  0.0000  0.0000  0.0000  0.0000
                                         0.0000  0.0000  0.0000  0.0000
   2. (1.99895) CR ( 1) C  2            s(100.00%)
                                         1.0000  0.0000  0.0000  0.0000  0.0000
                                         0.0000  0.0000  0.0000  0.0000  0.0000
                                         0.0000  0.0000  0.0000  0.0000
   3. (1.99912) CR ( 1) N  3            s(100.00%)
                                         1.0000  0.0000  0.0000  0.0000  0.0000
                                         0.0000  0.0000  0.0000  0.0000  0.0000
                                         0.0000  0.0000  0.0000  0.0000
   4. (1.99915) CR ( 1) C  4            s(100.00%)
                                         1.0000  0.0000  0.0000  0.0000  0.0000
                                         0.0000  0.0000  0.0000  0.0000  0.0000
                                         0.0000  0.0000  0.0000  0.0000
   5. (1.99974) CR ( 1) O  5            s(100.00%)
                                         1.0000  0.0000  0.0000  0.0000  0.0000
                                         0.0000  0.0000  0.0000  0.0000  0.0000
                                         0.0000  0.0000  0.0000  0.0000
   6. (1.99914) CR ( 1) C  6            s(100.00%)
                                         1.0000  0.0000  0.0000  0.0000  0.0000
                                         0.0000  0.0000  0.0000  0.0000  0.0000
                                         0.0000  0.0000  0.0000  0.0000
   7. (1.99960) CR ( 1) N  7            s(100.00%)
                                         1.0000  0.0000  0.0000  0.0000  0.0000
                                         0.0000  0.0000  0.0000  0.0000  0.0000
                                         0.0000  0.0000  0.0000  0.0000
   8. (1.61129) LP ( 1) N  3            s(  0.00%)p 1.00( 99.99%)d 0.00(  0.01%)
                                         0.0000  0.0001  0.0004 -0.0360  0.0003
                                        -0.0857 -0.0001 -0.9956 -0.0122 -0.0006
                                        -0.0083  0.0025 -0.0005  0.0002
   9. (1.97818) LP ( 1) O  5            s( 57.59%)p 0.74( 42.38%)d 0.00(  0.03%)
                                         0.0000  0.7588 -0.0132  0.4099 -0.0011
                                        -0.5049  0.0024  0.0287 -0.0002  0.0137
                                        -0.0006  0.0013  0.0025  0.0105
  10. (1.81664) LP ( 2) O  5            s(  0.10%)p99.99( 99.77%)d 1.23(  0.13%)
                                         0.0000  0.0317 -0.0053 -0.7978  0.0117
                                        -0.5955  0.0093  0.0800 -0.0012 -0.0099
                                        -0.0005  0.0032  0.0341 -0.0009
  11. (1.97197) LP ( 1) N  7            s( 52.87%)p 0.89( 47.08%)d 0.00(  0.05%)
                                         0.0000  0.7264 -0.0324  0.2738  0.0115
                                         0.6253  0.0268 -0.0636 -0.0029 -0.0147
                                         0.0015  0.0034  0.0132  0.0114
  12. (1.98620) BD ( 1) C  1- C  2
               ( 48.59%)   0.6970* C  1 s( 40.07%)p 1.49( 59.86%)d 0.00(  0.07%)
                                         0.0000  0.6328  0.0176  0.7725  0.0245
                                         0.0194 -0.0033 -0.0291 -0.0004  0.0024
                                        -0.0019 -0.0007  0.0207 -0.0163
               ( 51.41%)   0.7170* C  2 s( 41.94%)p 1.38( 58.01%)d 0.00(  0.05%)
                                         0.0000  0.6472  0.0238 -0.7609 -0.0130
                                         0.0020 -0.0136  0.0274  0.0016 -0.0041
                                        -0.0011 -0.0004  0.0172 -0.0134
  13. (1.95532) BD ( 2) C  1- C  2
               ( 51.41%)   0.7170* C  1 s(  0.00%)p 1.00( 99.94%)d 0.00(  0.06%)
                                         0.0000 -0.0001  0.0007  0.0355 -0.0005
                                         0.0854 -0.0025  0.9950 -0.0276  0.0022
                                         0.0250  0.0010  0.0009 -0.0017
               ( 48.59%)   0.6971* C  2 s(  0.00%)p 1.00( 99.94%)d 0.00(  0.06%)
                                         0.0000 -0.0002  0.0006  0.0359  0.0001
                                         0.0855 -0.0018  0.9949 -0.0297 -0.0019
                                        -0.0239  0.0060 -0.0013  0.0007
  14. (1.97853) BD ( 1) C  1- H  8
               ( 61.18%)   0.7822* C  1 s( 30.01%)p 2.33( 69.95%)d 0.00(  0.03%)
                                         0.0000  0.5478 -0.0046 -0.4274 -0.0138
                                        -0.7147  0.0037  0.0767  0.0007  0.0105
                                        -0.0012 -0.0028 -0.0103 -0.0106
               ( 38.82%)   0.6231* H  8 s( 99.90%)p 0.00(  0.10%)
                                         0.9995 -0.0004  0.0156  0.0271 -0.0028
  15. (1.98270) BD ( 1) C  1- H  9
               ( 60.31%)   0.7766* C  1 s( 29.90%)p 2.34( 70.06%)d 0.00(  0.04%)
                                         0.0000  0.5467 -0.0108 -0.4658 -0.0247
                                         0.6936 -0.0066 -0.0429  0.0010 -0.0126
                                         0.0007 -0.0020 -0.0094 -0.0110
               ( 39.69%)   0.6300* H  9 s( 99.90%)p 0.00(  0.10%)
                                         0.9995 -0.0020  0.0188 -0.0244  0.0014
  16. (1.98308) BD ( 1) C  2- N  3
               ( 36.61%)   0.6050* C  2 s( 27.76%)p 2.60( 72.10%)d 0.01(  0.14%)
                                         0.0000  0.5266  0.0166  0.4467  0.0132
                                         0.7173  0.0270 -0.0777 -0.0027  0.0266
                                        -0.0031 -0.0055 -0.0142 -0.0216
               ( 63.39%)   0.7962* N  3 s( 36.77%)p 1.72( 63.19%)d 0.00(  0.03%)
                                         0.0000  0.6064  0.0045 -0.4507  0.0105
                                        -0.6507 -0.0076  0.0724  0.0002  0.0106
                                        -0.0015 -0.0028 -0.0064 -0.0128
  17. (1.97186) BD ( 1) C  2- H 10
               ( 62.31%)   0.7894* C  2 s( 30.39%)p 2.29( 69.58%)d 0.00(  0.03%)
                                         0.0000  0.5504 -0.0309  0.4673 -0.0137
                                        -0.6895  0.0024  0.0425  0.0005 -0.0142
                                         0.0007 -0.0010 -0.0019 -0.0097
               ( 37.69%)   0.6139* H 10 s( 99.88%)p 0.00(  0.12%)
                                         0.9994 -0.0048 -0.0175  0.0304 -0.0020
  18. (1.98397) BD ( 1) N  3- C  4
               ( 63.04%)   0.7940* N  3 s( 36.53%)p 1.74( 63.42%)d 0.00(  0.04%)
                                         0.0000  0.6044  0.0066  0.7957 -0.0052
                                         0.0091 -0.0112 -0.0295  0.0010 -0.0011
                                        -0.0013 -0.0007  0.0154 -0.0141
               ( 36.96%)   0.6079* C  4 s( 33.38%)p 1.99( 66.49%)d 0.00(  0.13%)
                                         0.0000  0.5778  0.0010 -0.8130 -0.0157
                                        -0.0500  0.0073  0.0335 -0.0001 -0.0031
                                        -0.0020 -0.0003  0.0300 -0.0201
  19. (1.98282) BD ( 1) N  3- H 11
               ( 71.59%)   0.8461* N  3 s( 26.62%)p 2.76( 73.35%)d 0.00(  0.03%)
                                         0.0000  0.5159 -0.0045 -0.4024  0.0078
                                         0.7543 -0.0066 -0.0503  0.0007 -0.0110
                                         0.0005 -0.0021 -0.0093 -0.0114
               ( 28.41%)   0.5330* H 11 s( 99.77%)p 0.00(  0.23%)
                                         0.9988 -0.0068  0.0225 -0.0426  0.0029
  20. (1.99043) BD ( 1) C  4- O  5
               ( 35.00%)   0.5916* C  4 s( 34.34%)p 1.91( 65.50%)d 0.00(  0.16%)
                                         0.0000  0.5855  0.0238  0.4577  0.0419
                                        -0.6631 -0.0470  0.0426  0.0028 -0.0314
                                         0.0018 -0.0033 -0.0111 -0.0225
               ( 65.00%)   0.8062* O  5 s( 42.33%)p 1.36( 57.48%)d 0.00(  0.19%)
                                         0.0000  0.6502  0.0243 -0.4385 -0.0132
                                         0.6171  0.0163 -0.0354 -0.0008 -0.0366
                                         0.0022 -0.0026 -0.0115 -0.0204
  21. (1.97424) BD ( 2) C  4- O  5
               ( 33.77%)   0.5811* C  4 s(  0.00%)p 1.00( 99.74%)d 0.00(  0.26%)
                                         0.0000  0.0010 -0.0003 -0.0349  0.0002
                                        -0.0871  0.0009 -0.9940  0.0230 -0.0015
                                        -0.0327  0.0381 -0.0046 -0.0037
               ( 66.23%)   0.8138* O  5 s(  0.00%)p 1.00( 99.83%)d 0.00(  0.17%)
                                         0.0000  0.0013 -0.0002 -0.0367 -0.0003
                                        -0.0844 -0.0011 -0.9948 -0.0146  0.0009
                                         0.0245 -0.0331  0.0037  0.0034
  22. (1.98334) BD ( 1) C  4- C  6
               ( 48.49%)   0.6963* C  4 s( 32.04%)p 2.12( 67.89%)d 0.00(  0.07%)
                                         0.0000  0.5658 -0.0169  0.3526  0.0015
                                         0.7400 -0.0343 -0.0766  0.0030  0.0137
                                        -0.0013 -0.0039 -0.0189 -0.0117
               ( 51.51%)   0.7177* C  6 s( 51.62%)p 0.94( 48.34%)d 0.00(  0.03%)
                                         0.0000  0.7182  0.0219 -0.2804  0.0165
                                        -0.6327  0.0097  0.0647 -0.0017  0.0124
                                        -0.0012 -0.0025 -0.0093 -0.0082
  23. (1.99639) BD ( 1) C  6- N  7
               ( 41.33%)   0.6428* C  6 s( 48.07%)p 1.08( 51.86%)d 0.00(  0.07%)
                                         0.0000  0.6918 -0.0450  0.2496  0.0292
                                         0.6688  0.0605 -0.0663 -0.0065  0.0161
                                        -0.0016 -0.0040 -0.0168 -0.0135
               ( 58.67%)   0.7660* N  7 s( 47.30%)p 1.11( 52.45%)d 0.01(  0.24%)
                                         0.0000  0.6853  0.0583 -0.3330  0.0055
                                        -0.6394  0.0158  0.0675 -0.0012  0.0332
                                        -0.0034 -0.0071 -0.0266 -0.0239
  24. (1.98548) BD ( 2) C  6- N  7
               ( 46.59%)   0.6826* C  6 s(  0.11%)p99.99( 99.78%)d 0.97(  0.11%)
                                         0.0000  0.0297 -0.0152  0.9248 -0.0171
                                        -0.3770  0.0077 -0.0015 -0.0001  0.0240
                                        -0.0028  0.0011  0.0223  0.0006
               ( 53.41%)   0.7308* N  7 s(  0.12%)p99.99( 99.61%)d 2.35(  0.27%)
                                         0.0000  0.0333  0.0067  0.8997 -0.0108
                                        -0.4318  0.0079  0.0041 -0.0003 -0.0327
                                         0.0042 -0.0024 -0.0402 -0.0009
  25. (1.95232) BD ( 3) C  6- N  7
               ( 47.39%)   0.6884* C  6 s(  0.00%)p 1.00( 99.91%)d 0.00(  0.09%)
                                         0.0000  0.0004 -0.0008 -0.0364 -0.0002
                                        -0.0853 -0.0007 -0.9952  0.0102 -0.0020
                                        -0.0106 -0.0279  0.0020  0.0049
               ( 52.61%)   0.7253* N  7 s(  0.00%)p 1.00( 99.73%)d 0.00(  0.27%)
                                         0.0000  0.0004  0.0011 -0.0365  0.0007
                                        -0.0854  0.0014 -0.9942  0.0140  0.0036
                                         0.0212  0.0467 -0.0033 -0.0084
 ---------------- non-Lewis ----------------------------------------------------
  26. (0.00765) BD*( 1) C  1- C  2
               ( 51.41%)   0.7170* C  1 s( 40.07%)p 1.49( 59.86%)d 0.00(  0.07%)
                                         0.0000  0.6328  0.0176  0.7725  0.0245
                                         0.0194 -0.0033 -0.0291 -0.0004  0.0024
                                        -0.0019 -0.0007  0.0207 -0.0163
               ( 48.59%)  -0.6970* C  2 s( 41.94%)p 1.38( 58.01%)d 0.00(  0.05%)
                                         0.0000  0.6472  0.0238 -0.7609 -0.0130
                                         0.0020 -0.0136  0.0274  0.0016 -0.0041
                                        -0.0011 -0.0004  0.0172 -0.0134
  27. (0.10974) BD*( 2) C  1- C  2
               ( 48.59%)   0.6971* C  1 s(  0.00%)p 1.00( 99.94%)d 0.00(  0.06%)
                                         0.0000 -0.0001  0.0007  0.0355 -0.0005
                                         0.0854 -0.0025  0.9950 -0.0276  0.0022
                                         0.0250  0.0010  0.0009 -0.0017
               ( 51.41%)  -0.7170* C  2 s(  0.00%)p 1.00( 99.94%)d 0.00(  0.06%)
                                         0.0000 -0.0002  0.0006  0.0359  0.0001
                                         0.0855 -0.0018  0.9949 -0.0297 -0.0019
                                        -0.0239  0.0060 -0.0013  0.0007
  28. (0.00609) BD*( 1) C  1- H  8
               ( 38.82%)   0.6231* C  1 s( 30.01%)p 2.33( 69.95%)d 0.00(  0.03%)
                                         0.0000 -0.5478  0.0046  0.4274  0.0138
                                         0.7147 -0.0037 -0.0767 -0.0007 -0.0105
                                         0.0012  0.0028  0.0103  0.0106
               ( 61.18%)  -0.7822* H  8 s( 99.90%)p 0.00(  0.10%)
                                        -0.9995  0.0004 -0.0156 -0.0271  0.0028
  29. (0.01060) BD*( 1) C  1- H  9
               ( 39.69%)   0.6300* C  1 s( 29.90%)p 2.34( 70.06%)d 0.00(  0.04%)
                                         0.0000 -0.5467  0.0108  0.4658  0.0247
                                        -0.6936  0.0066  0.0429 -0.0010  0.0126
                                        -0.0007  0.0020  0.0094  0.0110
               ( 60.31%)  -0.7766* H  9 s( 99.90%)p 0.00(  0.10%)
                                        -0.9995  0.0020 -0.0188  0.0244 -0.0014
  30. (0.03245) BD*( 1) C  2- N  3
               ( 63.39%)   0.7962* C  2 s( 27.76%)p 2.60( 72.10%)d 0.01(  0.14%)
                                         0.0000  0.5266  0.0166  0.4467  0.0132
                                         0.7173  0.0270 -0.0777 -0.0027  0.0266
                                        -0.0031 -0.0055 -0.0142 -0.0216
               ( 36.61%)  -0.6050* N  3 s( 36.77%)p 1.72( 63.19%)d 0.00(  0.03%)
                                         0.0000  0.6064  0.0045 -0.4507  0.0105
                                        -0.6507 -0.0076  0.0724  0.0002  0.0106
                                        -0.0015 -0.0028 -0.0064 -0.0128
  31. (0.02176) BD*( 1) C  2- H 10
               ( 37.69%)   0.6139* C  2 s( 30.39%)p 2.29( 69.58%)d 0.00(  0.03%)
                                         0.0000 -0.5504  0.0309 -0.4673  0.0137
                                         0.6895 -0.0024 -0.0425 -0.0005  0.0142
                                        -0.0007  0.0010  0.0019  0.0097
               ( 62.31%)  -0.7894* H 10 s( 99.88%)p 0.00(  0.12%)
                                        -0.9994  0.0048  0.0175 -0.0304  0.0020
  32. (0.08600) BD*( 1) N  3- C  4
               ( 36.96%)   0.6079* N  3 s( 36.53%)p 1.74( 63.42%)d 0.00(  0.04%)
                                         0.0000 -0.6044 -0.0066 -0.7957  0.0052
                                        -0.0091  0.0112  0.0295 -0.0010  0.0011
                                         0.0013  0.0007 -0.0154  0.0141
               ( 63.04%)  -0.7940* C  4 s( 33.38%)p 1.99( 66.49%)d 0.00(  0.13%)
                                         0.0000 -0.5778 -0.0010  0.8130  0.0157
                                         0.0500 -0.0073 -0.0335  0.0001  0.0031
                                         0.0020  0.0003 -0.0300  0.0201
  33. (0.02107) BD*( 1) N  3- H 11
               ( 28.41%)   0.5330* N  3 s( 26.62%)p 2.76( 73.35%)d 0.00(  0.03%)
                                         0.0000 -0.5159  0.0045  0.4024 -0.0078
                                        -0.7543  0.0066  0.0503 -0.0007  0.0110
                                        -0.0005  0.0021  0.0093  0.0114
               ( 71.59%)  -0.8461* H 11 s( 99.77%)p 0.00(  0.23%)
                                        -0.9988  0.0068 -0.0225  0.0426 -0.0029
  34. (0.01513) BD*( 1) C  4- O  5
               ( 65.00%)   0.8062* C  4 s( 34.34%)p 1.91( 65.50%)d 0.00(  0.16%)
                                         0.0000  0.5855  0.0238  0.4577  0.0419
                                        -0.6631 -0.0470  0.0426  0.0028 -0.0314
                                         0.0018 -0.0033 -0.0111 -0.0225
               ( 35.00%)  -0.5916* O  5 s( 42.33%)p 1.36( 57.48%)d 0.00(  0.19%)
                                         0.0000  0.6502  0.0243 -0.4385 -0.0132
                                         0.6171  0.0163 -0.0354 -0.0008 -0.0366
                                         0.0022 -0.0026 -0.0115 -0.0204
  35. (0.34348) BD*( 2) C  4- O  5
               ( 66.23%)   0.8138* C  4 s(  0.00%)p 1.00( 99.74%)d 0.00(  0.26%)
                                         0.0000  0.0010 -0.0003 -0.0349  0.0002
                                        -0.0871  0.0009 -0.9940  0.0230 -0.0015
                                        -0.0327  0.0381 -0.0046 -0.0037
               ( 33.77%)  -0.5811* O  5 s(  0.00%)p 1.00( 99.83%)d 0.00(  0.17%)
                                         0.0000  0.0013 -0.0002 -0.0367 -0.0003
                                        -0.0844 -0.0011 -0.9948 -0.0146  0.0009
                                         0.0245 -0.0331  0.0037  0.0034
  36. (0.09007) BD*( 1) C  4- C  6
               ( 51.51%)   0.7177* C  4 s( 32.04%)p 2.12( 67.89%)d 0.00(  0.07%)
                                         0.0000 -0.5658  0.0169 -0.3526 -0.0015
                                        -0.7400  0.0343  0.0766 -0.0030 -0.0137
                                         0.0013  0.0039  0.0189  0.0117
               ( 48.49%)  -0.6963* C  6 s( 51.62%)p 0.94( 48.34%)d 0.00(  0.03%)
                                         0.0000 -0.7182 -0.0219  0.2804 -0.0165
                                         0.6327 -0.0097 -0.0647  0.0017 -0.0124
                                         0.0012  0.0025  0.0093  0.0082
  37. (0.01001) BD*( 1) C  6- N  7
               ( 58.67%)   0.7660* C  6 s( 48.07%)p 1.08( 51.86%)d 0.00(  0.07%)
                                         0.0000  0.6918 -0.0450  0.2496  0.0292
                                         0.6688  0.0605 -0.0663 -0.0065  0.0161
                                        -0.0016 -0.0040 -0.0168 -0.0135
               ( 41.33%)  -0.6428* N  7 s( 47.30%)p 1.11( 52.45%)d 0.01(  0.24%)
                                         0.0000  0.6853  0.0583 -0.3330  0.0055
                                        -0.6394  0.0158  0.0675 -0.0012  0.0332
                                        -0.0034 -0.0071 -0.0266 -0.0239
  38. (0.02633) BD*( 2) C  6- N  7
               ( 53.41%)   0.7308* C  6 s(  0.11%)p99.99( 99.78%)d 0.97(  0.11%)
                                         0.0000 -0.0297  0.0152 -0.9248  0.0171
                                         0.3770 -0.0077  0.0015  0.0001 -0.0240
                                         0.0028 -0.0011 -0.0223 -0.0006
               ( 46.59%)  -0.6826* N  7 s(  0.12%)p99.99( 99.61%)d 2.35(  0.27%)
                                         0.0000 -0.0333 -0.0067 -0.8997  0.0108
                                         0.4318 -0.0079 -0.0041  0.0003  0.0327
                                        -0.0042  0.0024  0.0402  0.0009
  39. (0.03822) BD*( 3) C  6- N  7
               ( 52.61%)   0.7253* C  6 s(  0.00%)p 1.00( 99.91%)d 0.00(  0.09%)
                                         0.0000 -0.0004  0.0008  0.0364  0.0002
                                         0.0853  0.0007  0.9952 -0.0102  0.0020
                                         0.0106  0.0279 -0.0020 -0.0049
               ( 47.39%)  -0.6884* N  7 s(  0.00%)p 1.00( 99.73%)d 0.00(  0.27%)
                                         0.0000 -0.0004 -0.0011  0.0365 -0.0007
                                         0.0854 -0.0014  0.9942 -0.0140 -0.0036
                                        -0.0212 -0.0467  0.0033  0.0084
  40. (0.00364) RY ( 1) C  1            s(  1.43%)p65.79( 93.94%)d 3.24(  4.63%)
                                         0.0000  0.0043  0.1194 -0.0091  0.1942
                                         0.0122  0.9459 -0.0006 -0.0815  0.2141
                                        -0.0175 -0.0076 -0.0067  0.0073
  41. (0.00061) RY ( 2) C  1            s(  1.99%)p45.07( 89.80%)d 4.12(  8.21%)
                                         0.0000  0.0003  0.1412 -0.0126  0.2973
                                         0.0041 -0.0040  0.0185  0.8995  0.0381
                                         0.2488  0.1272  0.0158 -0.0480
  42. (0.00057) RY ( 3) C  1            s( 19.07%)p 4.16( 79.37%)d 0.08(  1.56%)
                                         0.0000  0.0014  0.4367 -0.0406  0.7972
                                         0.0051 -0.2511 -0.0058 -0.3057  0.0181
                                        -0.0912 -0.0449  0.0611 -0.0348
  43. (0.00014) RY ( 4) C  1            s( 55.15%)p 0.26( 14.43%)d 0.55( 30.42%)
                                         0.0000 -0.0066  0.7426 -0.0021 -0.3652
                                        -0.0076  0.1039  0.0003  0.0066 -0.5289
                                         0.0399  0.0069  0.0601 -0.1385
  44. (0.00002) RY ( 5) C  1            s( 13.36%)p 0.35(  4.65%)d 6.14( 81.99%)
  45. (0.00001) RY ( 6) C  1            s(  6.37%)p 1.26(  8.05%)d13.44( 85.58%)
  46. (0.00000) RY ( 7) C  1            s(  0.01%)p 1.00(  8.78%)d10.39( 91.21%)
  47. (0.00000) RY ( 8) C  1            s(  2.64%)p 0.33(  0.86%)d36.53( 96.50%)
  48. (0.00000) RY ( 9) C  1            s(  0.00%)p 1.00(  0.32%)d99.99( 99.68%)
  49. (0.00765) RY ( 1) C  2            s(  4.61%)p19.90( 91.78%)d 0.78(  3.60%)
                                         0.0000  0.0069  0.2146  0.0027  0.9359
                                        -0.0245 -0.2031  0.0011 -0.0115  0.1395
                                        -0.0164  0.0041  0.1261 -0.0204
  50. (0.00246) RY ( 2) C  2            s(  0.68%)p81.87( 56.01%)d63.31( 43.31%)
                                         0.0000 -0.0001  0.0827  0.0073 -0.1160
                                        -0.0026 -0.3287 -0.0305 -0.6615  0.0673
                                        -0.5189 -0.3896  0.0148  0.0852
  51. (0.00236) RY ( 3) C  2            s(  7.05%)p10.50( 74.10%)d 2.67( 18.85%)
                                         0.0000 -0.0010  0.2656  0.0250 -0.2773
                                         0.0005 -0.7538  0.0102  0.3084  0.3902
                                         0.1431  0.1187 -0.0042 -0.0401
  52. (0.00047) RY ( 4) C  2            s( 84.43%)p 0.14( 11.69%)d 0.05(  3.88%)
                                         0.0000 -0.0118  0.9188  0.0207 -0.1464
                                        -0.0293  0.3062  0.0010 -0.0198 -0.1246
                                        -0.0095 -0.0056  0.1330 -0.0742
  53. (0.00031) RY ( 5) C  2            s(  0.30%)p42.98( 12.77%)d99.99( 86.94%)
                                         0.0000 -0.0074  0.0540 -0.0256  0.0286
                                        -0.0362  0.3512  0.0037 -0.0388  0.7197
                                        -0.0456 -0.0937 -0.5682 -0.1333
  54. (0.00011) RY ( 6) C  2            s(  2.34%)p 2.72(  6.34%)d39.10( 91.32%)
                                         0.0000  0.0089  0.1526 -0.0031  0.1022
                                         0.0059 -0.2295 -0.0004  0.0154 -0.5026
                                         0.0837 -0.0284 -0.7955  0.1412
  55. (0.00006) RY ( 7) C  2            s(  0.01%)p 1.00( 44.78%)d 1.23( 55.21%)
  56. (0.00002) RY ( 8) C  2            s(  0.48%)p 1.86(  0.90%)d99.99( 98.61%)
  57. (0.00000) RY ( 9) C  2            s(  0.00%)p 1.00(  2.01%)d48.78( 97.99%)
  58. (0.00325) RY ( 1) N  3            s( 42.29%)p 1.22( 51.62%)d 0.14(  6.09%)
                                         0.0000 -0.0163  0.6501 -0.0028  0.3705
                                         0.0077 -0.6150 -0.0005  0.0268  0.1981
                                        -0.0251 -0.0075  0.1283 -0.0669
  59. (0.00189) RY ( 2) N  3            s(  0.05%)p99.99( 89.75%)d99.99( 10.20%)
                                         0.0000  0.0000  0.0221  0.0002  0.0916
                                        -0.0011  0.1233 -0.0117  0.9348  0.0231
                                         0.1234  0.2892 -0.0018 -0.0508
  60. (0.00133) RY ( 3) N  3            s(  0.83%)p99.99( 88.12%)d13.24( 11.05%)
                                         0.0000 -0.0026  0.0913 -0.0059 -0.7966
                                        -0.0032 -0.4771 -0.0014  0.1379 -0.1245
                                         0.0252 -0.0074 -0.3040 -0.0431
  61. (0.00065) RY ( 4) N  3            s( 52.70%)p 0.63( 33.24%)d 0.27( 14.06%)
                                         0.0000  0.0047  0.7260 -0.0047 -0.1882
                                        -0.0011  0.5386  0.0010 -0.0826 -0.3558
                                         0.0872  0.0193 -0.0082 -0.0769
  62. (0.00049) RY ( 5) N  3            s(  0.26%)p22.02(  5.70%)d99.99( 94.04%)
                                         0.0000  0.0001  0.0509 -0.0003  0.0005
                                        -0.0001  0.0541  0.0037  0.2326 -0.1271
                                        -0.8789 -0.3753  0.0080  0.1043
  63. (0.00019) RY ( 6) N  3            s(  0.48%)p15.19(  7.23%)d99.99( 92.29%)
                                         0.0000 -0.0038  0.0689  0.0201  0.2300
                                         0.0026  0.1361 -0.0005 -0.0223  0.2799
                                        -0.0132 -0.1183 -0.8929 -0.1819
  64. (0.00011) RY ( 7) N  3            s(  1.98%)p 9.99( 19.82%)d39.41( 78.19%)
                                         0.0000  0.0048  0.1408 -0.0077 -0.3621
                                         0.0142  0.2585 -0.0008 -0.0070  0.8477
                                        -0.0957 -0.0135  0.2311 -0.0252
  65. (0.00002) RY ( 8) N  3            s(  1.47%)p 0.02(  0.03%)d66.89( 98.50%)
  66. (0.00000) RY ( 9) N  3            s(  0.00%)p 1.00(  4.53%)d21.10( 95.47%)
  67. (0.01532) RY ( 1) C  4            s( 11.56%)p 7.52( 86.95%)d 0.13(  1.48%)
                                         0.0000 -0.0417  0.3375 -0.0524  0.5658
                                         0.0253 -0.7377 -0.0001  0.0427  0.0704
                                        -0.0025 -0.0097 -0.0987  0.0071
  68. (0.00697) RY ( 2) C  4            s(  8.73%)p 2.93( 25.62%)d 7.52( 65.65%)
                                         0.0000 -0.0106  0.2954  0.0277 -0.4063
                                         0.0114 -0.2987 -0.0025  0.0319 -0.1725
                                        -0.0027  0.0617  0.7888 -0.0264
  69. (0.00495) RY ( 3) C  4            s(  0.00%)p 1.00( 10.73%)d 8.32( 89.27%)
                                         0.0000 -0.0002  0.0010  0.0025  0.0175
                                         0.0053  0.0292  0.0538  0.3213 -0.0540
                                        -0.7518  0.5660 -0.0532 -0.0385
  70. (0.00295) RY ( 4) C  4            s(  0.70%)p95.18( 66.56%)d46.81( 32.74%)
                                         0.0000  0.0030  0.0836  0.0075  0.6721
                                         0.0333  0.4583 -0.0049 -0.0521 -0.4076
                                         0.0415  0.0377  0.3974 -0.0137
  71. (0.00094) RY ( 5) C  4            s(  0.06%)p99.99( 71.79%)d99.99( 28.15%)
                                         0.0000  0.0001  0.0247  0.0004  0.0141
                                         0.0007  0.0736  0.0101  0.8439  0.0636
                                         0.4940  0.1732 -0.0080 -0.0579
  72. (0.00087) RY ( 6) C  4            s( 26.72%)p 0.24(  6.30%)d 2.51( 66.98%)
                                         0.0000 -0.0078  0.5169 -0.0135 -0.2446
                                         0.0263  0.0455 -0.0015 -0.0144 -0.6728
                                         0.0700 -0.0074 -0.4511 -0.0925
  73. (0.00053) RY ( 7) C  4            s( 48.56%)p 0.30( 14.77%)d 0.76( 36.67%)
                                         0.0000  0.0157  0.6967  0.0164  0.0016
                                         0.0008  0.3641 -0.0001 -0.1219  0.5814
                                        -0.0039  0.0893 -0.0023 -0.1441
  74. (0.00044) RY ( 8) C  4            s(  1.68%)p10.29( 17.28%)d48.29( 81.04%)
                                         0.0000  0.0021  0.1295  0.0021  0.0066
                                         0.0002  0.0962 -0.0075  0.4042  0.0155
                                        -0.4242 -0.7844  0.0420  0.1146
  75. (0.00002) RY ( 9) C  4            s(  2.23%)p 0.17(  0.38%)d43.76( 97.40%)
  76. (0.00182) RY ( 1) O  5            s(  0.45%)p99.99( 98.43%)d 2.51(  1.12%)
                                         0.0000 -0.0014  0.0669 -0.0066 -0.8335
                                        -0.0105 -0.5281  0.0003  0.1027 -0.0519
                                        -0.0006  0.0137  0.0909  0.0094
  77. (0.00106) RY ( 2) O  5            s(  0.00%)p 1.00( 96.57%)d 0.04(  3.43%)
                                         0.0000 -0.0001  0.0010 -0.0005  0.0562
                                        -0.0018  0.1014 -0.0219  0.9756 -0.0050
                                        -0.1341  0.1256 -0.0204 -0.0108
  78. (0.00016) RY ( 3) O  5            s( 43.67%)p 1.21( 52.81%)d 0.08(  3.52%)
                                         0.0000 -0.0170  0.6606  0.0217 -0.3397
                                        -0.0255  0.6398  0.0013 -0.0470 -0.1744
                                         0.0149  0.0150  0.0651  0.0108
  79. (0.00005) RY ( 4) O  5            s( 47.80%)p 0.54( 25.90%)d 0.55( 26.30%)
  80. (0.00002) RY ( 5) O  5            s(  3.44%)p 1.18(  4.05%)d26.92( 92.51%)
  81. (0.00001) RY ( 6) O  5            s(  4.56%)p 4.16( 19.00%)d16.75( 76.44%)
  82. (0.00001) RY ( 7) O  5            s(  0.04%)p 7.15(  0.32%)d99.99( 99.64%)
  83. (0.00000) RY ( 8) O  5            s(  0.01%)p 1.00(  0.10%)d99.99( 99.89%)
  84. (0.00000) RY ( 9) O  5            s(  0.00%)p 1.00(  3.37%)d28.71( 96.63%)
  85. (0.01583) RY ( 1) C  6            s( 13.57%)p 6.35( 86.21%)d 0.02(  0.22%)
                                         0.0000  0.0574  0.3639  0.0246 -0.2924
                                         0.0465 -0.8754 -0.0036  0.0863  0.0381
                                        -0.0034 -0.0051 -0.0217 -0.0155
  86. (0.00547) RY ( 2) C  6            s( 64.48%)p 0.53( 33.93%)d 0.02(  1.59%)
                                         0.0000 -0.0099  0.8029  0.0274  0.5633
                                         0.0192  0.1414 -0.0037 -0.0309  0.0317
                                        -0.0024  0.0149  0.0937  0.0766
  87. (0.00297) RY ( 3) C  6            s( 17.96%)p 4.22( 75.76%)d 0.35(  6.28%)
                                         0.0000  0.0100  0.4237 -0.0123 -0.7558
                                         0.0181  0.4311 -0.0014 -0.0025  0.1523
                                        -0.0218  0.0080  0.1970  0.0154
  88. (0.00098) RY ( 4) C  6            s(  0.00%)p 1.00( 44.02%)d 1.27( 55.97%)
                                         0.0000 -0.0001  0.0054 -0.0013 -0.0279
                                        -0.0022 -0.0532 -0.0294 -0.6601  0.0520
                                         0.2536  0.6908 -0.0421 -0.1169
  89. (0.00019) RY ( 5) C  6            s(  3.51%)p 1.02(  3.59%)d26.50( 92.90%)
                                         0.0000  0.0052  0.1871  0.0305 -0.1472
                                        -0.0074  0.1095 -0.0004 -0.0359 -0.7115
                                         0.0567 -0.0415 -0.6463 -0.0092
  90. (0.00016) RY ( 6) C  6            s(  0.01%)p 1.00( 41.64%)d 1.40( 58.35%)
                                         0.0000  0.0001  0.0084  0.0009  0.0184
                                        -0.0013  0.0607 -0.0110  0.6421  0.0464
                                         0.6692  0.3509 -0.0406 -0.0936
  91. (0.00005) RY ( 7) C  6            s(  0.40%)p 1.13(  0.46%)d99.99( 99.14%)
  92. (0.00001) RY ( 8) C  6            s(  0.27%)p 0.58(  0.16%)d99.99( 99.57%)
  93. (0.00001) RY ( 9) C  6            s(  0.00%)p 1.00( 14.33%)d 5.98( 85.67%)
  94. (0.00213) RY ( 1) N  7            s( 79.37%)p 0.25( 19.98%)d 0.01(  0.65%)
                                         0.0000 -0.0284  0.8905  0.0176 -0.0973
                                         0.0572  0.4314 -0.0044 -0.0240  0.0591
                                        -0.0067 -0.0118 -0.0310 -0.0429
  95. (0.00016) RY ( 2) N  7            s(  0.01%)p 1.00( 99.97%)d 0.00(  0.03%)
                                         0.0000  0.0002  0.0084  0.0014  0.0750
                                         0.0016  0.0555  0.0140  0.9954 -0.0014
                                         0.0148 -0.0042  0.0031  0.0030
  96. (0.00016) RY ( 3) N  7            s( 10.32%)p 7.71( 79.53%)d 0.98( 10.15%)
                                         0.0000  0.0284  0.3199  0.0039 -0.5246
                                         0.0107 -0.7171 -0.0011  0.0754 -0.1925
                                         0.0185  0.0458  0.2009  0.1473
  97. (0.00010) RY ( 4) N  7            s(  9.66%)p 9.29( 89.81%)d 0.05(  0.53%)
  98. (0.00000) RY ( 5) N  7            s(  0.14%)p66.38(  9.19%)d99.99( 90.67%)
  99. (0.00000) RY ( 6) N  7            s(  0.00%)p 1.00(  0.03%)d99.99( 99.97%)
 100. (0.00000) RY ( 7) N  7            s(  0.00%)p 1.00(  0.32%)d99.99( 99.68%)
 101. (0.00000) RY ( 8) N  7            s(  0.21%)p10.67(  2.24%)d99.99( 97.55%)
 102. (0.00000) RY ( 9) N  7            s(  0.00%)p 1.00(  0.06%)d99.99( 99.94%)
 103. (0.00103) RY ( 1) H  8            s( 93.85%)p 0.07(  6.15%)
                                         0.0082  0.9687 -0.1206 -0.2165  0.0107
 104. (0.00027) RY ( 2) H  8            s(  0.01%)p99.99( 99.99%)
                                         0.0002  0.0101  0.0351  0.0750  0.9965
 105. (0.00010) RY ( 3) H  8            s(  0.34%)p99.99( 99.66%)
 106. (0.00004) RY ( 4) H  8            s(  5.91%)p15.93( 94.09%)
 107. (0.00172) RY ( 1) H  9            s( 96.34%)p 0.04(  3.66%)
                                         0.0078  0.9815 -0.0903  0.1685 -0.0087
 108. (0.00026) RY ( 2) H  9            s(  0.00%)p 1.00(100.00%)
                                         0.0001  0.0020 -0.0363 -0.0822 -0.9960
 109. (0.00011) RY ( 3) H  9            s(  0.40%)p99.99( 99.60%)
                                        -0.0050  0.0634 -0.6776 -0.7278  0.0849
 110. (0.00004) RY ( 4) H  9            s(  3.35%)p28.83( 96.65%)
 111. (0.00383) RY ( 1) H 10            s( 97.83%)p 0.02(  2.17%)
                                         0.0079  0.9891  0.1454 -0.0224 -0.0051
 112. (0.00017) RY ( 2) H 10            s(  0.00%)p 1.00(100.00%)
                                        -0.0002  0.0021 -0.0636 -0.0931 -0.9936
 113. (0.00007) RY ( 3) H 10            s(  2.18%)p44.90( 97.82%)
 114. (0.00003) RY ( 4) H 10            s(  0.11%)p99.99( 99.89%)
 115. (0.00294) RY ( 1) H 11            s( 98.39%)p 0.02(  1.61%)
                                         0.0129  0.9918 -0.0620  0.1106 -0.0035
 116. (0.00046) RY ( 2) H 11            s(  0.00%)p 1.00(100.00%)
                                         0.0001  0.0037 -0.0395 -0.0874 -0.9954
 117. (0.00013) RY ( 3) H 11            s(  0.00%)p 1.00(100.00%)
                                        -0.0031  0.0049 -0.8515 -0.5184  0.0793
 118. (0.00004) RY ( 4) H 11            s(  1.84%)p53.46( 98.16%)


 NHO DIRECTIONALITY AND BOND BENDING (deviation from line of nuclear centers at
                                      the position of maximum hybrid amplitude)

         [Thresholds for printing:  angular deviation  >  1.0 degree]
                                    p- or d-character  > 25.0%
                                    orbital occupancy  >  0.10e

                        Line of Centers        Hybrid 1             Hybrid 2
                        ---------------  -------------------  ------------------
           NBO            Theta   Phi    Theta   Phi    Dev   Theta   Phi    Dev
 ===============================================================================
   8. LP ( 1) N  3          --     --    174.7  249.5   --      --     --    --
   9. LP ( 1) O  5          --     --     87.5  309.6   --      --     --    --
  10. LP ( 2) O  5          --     --     85.5  215.7   --      --     --    --
  11. LP ( 1) N  7          --     --     95.3   66.4   --      --     --    --
  13. BD ( 2) C  1- C  2   92.1    0.6   175.0  256.2  89.1     5.2   76.3  89.2
  16. BD ( 1) C  2- N  3   95.2   56.8    95.2   59.0   2.2     --     --    --
  18. BD ( 1) N  3- C  4   92.0  359.5     --     --    --     87.8  181.7   2.2
  20. BD ( 1) C  4- O  5   87.2  305.8    87.0  304.7   1.1     --     --    --
  21. BD ( 2) C  4- O  5   87.2  305.8     4.9   48.2  88.3   175.1  236.8  89.0
  22. BD ( 1) C  4- C  6   95.3   67.2    95.3   64.6   2.7     --     --    --
  23. BD ( 1) C  6- N  7   95.3   66.1    95.3   69.4   3.2    84.7  243.1   3.0
  24. BD ( 2) C  6- N  7   95.3   66.1    90.3  339.8  86.3    89.6  332.3  86.2
  25. BD ( 3) C  6- N  7   95.3   66.1   175.7  246.3  89.0     4.0   67.3  88.7


 3-Center, 4-Electron A:-B-:C Hyperbonds (A-B :C <=> A: B-C)
              [threshold for detection: 33.3%]

                                                  NBOs       3-center hybrids
[...]
  7 H                -0.2      -0.0      -0.0       0.0      -0.0       0.0
  9 H                51.3      -0.5      -0.0      -0.0       0.0      -0.0
 10 H                -0.0      -0.8      44.1       0.0       0.0      -0.2

                     18        19        20        21        22        23   
                   0.00000   0.00000   0.00000   0.00000   0.00000   0.00000
                   1.99639   1.98548   1.95232   1.61129   1.97818   1.81664
                  --------  --------  --------  --------  --------  --------
  1 C                 0.0      -0.0       0.0      -1.8       0.0      -0.3
  2 N                -0.0      -0.3      -0.0     103.6      -0.0      -0.7
  3 C                 3.4       0.7      -0.6      -1.8      -6.8       2.4
  4 O                -0.0      -0.1       0.0       0.0     107.0     100.1
  5 C                52.9      47.2      49.2      -0.1      -0.2      -1.7
  6 N                43.7      52.5      51.4      -0.0      -0.0      -0.0
  9 H                 0.0       0.0       0.0       0.0       0.0       0.1
 10 H                 0.0       0.1       0.0       0.1      -0.0      -0.0

                     24        25        26        27        28        29   
                   0.00000   0.00000   0.00000   0.00000   0.00000   0.00000
                   1.97197   0.00765   0.10974   0.00609   0.01060   0.03245
                  --------  --------  --------  --------  --------  --------
  0 C                -0.0      45.8      47.9      44.1      44.9       2.5
  1 C                -0.0      51.0      52.6       0.4       0.9      54.7
  2 N                -0.0       1.3      -0.8      -0.4       0.0      43.0
  3 C                -0.2       1.4       0.1       0.0       0.0      -0.1
  4 O                -0.0      -0.3      -0.0       0.0      -0.0      -0.1
  5 C               -22.2       0.6       0.0      -0.0      -0.0       0.3
  6 N               122.4       0.0       0.0       0.0      -0.0       0.0
  7 H                -0.0      -0.2       0.1      55.5       0.2      -0.4
  8 H                -0.0      -0.1       0.1       0.2      54.1      -0.1
  9 H                -0.0       0.5       0.1       0.1      -0.3       0.4
 10 H                 0.0       0.1       0.0       0.0       0.1      -0.2

                     30        31        32        33        34        35   
                   0.00000   0.00000   0.00000   0.00000   0.00000   0.00000
                   0.02176   0.08600   0.02107   0.01513   0.34348   0.09007
                  --------  --------  --------  --------  --------  --------
  0 C                 0.9      -0.5       0.0       0.0       0.0       0.4
  1 C                43.5       0.6      -0.5       0.5       0.0       2.4
  2 N                 0.8      45.8      32.6       0.4      -0.5       1.0
  3 C                 0.0      52.2      -0.5      55.3      66.2      50.2
  4 O                 0.0       0.5      -0.1      41.6      34.1       1.7
  5 C                -0.0       1.7       0.3       2.2       0.1      45.1
  6 N                -0.0      -0.1      -0.0      -0.1      -0.0      -0.6
  8 H                -0.3       0.0       0.1      -0.0      -0.0      -0.0
  9 H                55.1       0.0      -0.1       0.2       0.0      -0.0
 10 H                -0.1      -0.3      68.2      -0.1       0.0       0.0

                     36        37        38        39        40        41   
                   0.00000   0.00000   0.00000   0.00000   0.00000   0.00000
                   0.01001   0.02633   0.03822   0.00364   0.00061   0.00057
                  --------  --------  --------  --------  --------  --------
  0 C                 0.0       0.0       0.0     172.5     120.2     236.5
  1 C                 0.1       0.0       0.0     -38.7     -17.9    -125.0
  2 N                 0.5      -0.9      -0.0       2.1      -0.2      -1.5
  3 C                -1.4       3.9       0.2      -0.3      -0.1      -0.9
  4 O                 0.3      -0.5      -0.0      -0.0       0.0       0.0
  5 C                38.0      50.7      51.9       0.0      -0.1      -0.9
  6 N                62.5      46.6      47.9      -0.0      -0.0      -0.2
  7 H                -0.0      -0.0      -0.0     -18.5      -1.1      -2.7
  8 H                 0.0       0.0      -0.0     -16.8      -0.6      -3.3
  9 H                 0.0       0.0      -0.0      -0.0      -0.2      -1.5
 10 H                -0.0       0.1       0.0      -0.3      -0.1      -0.6

                     42        43        44        45        46        47   
                   0.00000   0.00000   0.00000   0.00000   0.00000   0.00000
                   0.00014   0.00002   0.00001   0.00000   0.00000   0.00000
                  --------  --------  --------  --------  --------  --------
  0 C               175.2     127.1     115.1     104.7     112.1     105.2
  1 C               -34.9     -11.6      -3.1      -3.5      -1.8      -0.4
  2 N                 0.3      -0.0       0.0      -0.0      -0.0      -0.0
  3 C                -0.4      -0.1      -0.0      -0.0      -0.0      -0.0
  5 C                -0.2      -0.1       0.0      -0.0      -0.1      -0.0
  7 H               -14.4     -10.3      -8.6      -1.0      -4.7      -1.6
  8 H               -25.3      -4.7      -3.3      -0.1      -5.3      -3.1
  9 H                -0.4      -0.1       0.0      -0.0      -0.1      -0.0

                     48        49        50        51        52        53   
                   0.00000   0.00000   0.00000   0.00000   0.00000   0.00000
                   0.00765   0.00246   0.00236   0.00047   0.00031   0.00011
                  --------  --------  --------  --------  --------  --------
  0 C               -36.4      -9.4     -50.4    -125.0      -6.7      -6.1
  1 C               190.9     115.1     188.8     274.7     113.3     116.8
  2 N               -12.9      -2.7     -17.0     -42.8      -2.0      -3.1
  3 C               -15.3      -0.6      -2.3      -4.3       0.1       0.7
  4 O                 0.8       0.0       0.0      -0.1       0.0      -0.0
  5 C                -4.3      -0.1      -1.0       0.8       0.3       0.1
  6 N                -0.4      -0.0      -0.1       0.0       0.0       0.0
  7 H                -0.6       0.2       1.8      -0.6       0.5       0.1
  8 H                 0.1      -0.1      -0.9       1.4       0.2       0.1
  9 H               -21.5      -2.2     -18.1      -3.8      -5.4      -8.7
 10 H                -0.3      -0.1      -0.9      -0.4      -0.2       0.2

                     54        55        56        57        58        59   
                   0.00000   0.00000   0.00000   0.00000   0.00000   0.00000
                   0.00006   0.00002   0.00000   0.00325   0.00189   0.00133
                  --------  --------  --------  --------  --------  --------
  0 C                -3.2      -1.9      -1.7       1.6       0.0       1.3
  1 C               107.7     109.2     105.2     -16.5      -2.7     -18.5
  2 N                -4.6      -2.2       0.1     150.8     109.0     155.0
  3 C                 0.1      -0.2      -0.1     -16.4      -4.4     -29.0
  4 O                -0.0      -0.1       0.0      -1.8      -0.5      -2.8
  5 C                -0.0      -0.1      -0.0       0.8       0.0      -2.7
  6 N                -0.0      -0.0      -0.0       0.0      -0.0      -0.2
  8 H                -0.0      -0.0      -0.0      -0.1      -0.0      -0.3
  9 H                 0.3      -4.6      -3.4      -0.8      -0.0      -0.8
 10 H                -0.1      -0.1      -0.0     -17.7      -1.3      -1.8

                     60        61        62        63        64        65   
                   0.00000   0.00000   0.00000   0.00000   0.00000   0.00000
                   0.00065   0.00049   0.00019   0.00011   0.00002   0.00000
                  --------  --------  --------  --------  --------  --------
  0 C                -2.2      -0.0       0.7       0.2       0.0       0.0
  1 C               -32.4      -1.9      -4.2      -4.6      -0.9      -0.9
  2 N               169.7     103.2     109.5     118.1     104.9     103.8
  3 C               -29.3      -1.2      -2.9      -7.6      -1.5      -0.9
  4 O                -1.5       0.0      -0.4      -0.1      -0.2      -0.1
  5 C                -2.4      -0.0       0.8      -1.5      -0.2       0.0
  6 N                -0.4      -0.0      -0.0      -0.2      -0.1      -0.0
  8 H                -0.1      -0.0      -0.0      -0.0      -0.0      -0.0
 10 H                -1.4      -0.1      -3.5      -4.2      -2.0      -2.0

                     66        67        68        69        70        71   
                   0.00000   0.00000   0.00000   0.00000   0.00000   0.00000
                   0.01532   0.00697   0.00495   0.00295   0.00094   0.00087
                  --------  --------  --------  --------  --------  --------
  0 C                 0.0      -0.0      -0.0      -2.2      -0.0       0.6
  1 C                -2.7      -3.8      -0.1     -14.6      -0.1       1.3
  2 N               -11.1     -13.6      -0.8     -17.7      -6.1     -29.4
  3 C               171.8     125.9     105.8     249.5     115.2     173.1
  4 O               -43.4      -7.2      -4.0     -13.9      -3.3       2.8
  5 C               -13.4      -2.4      -0.8     -87.4      -5.3     -42.4
  6 N                -0.6       1.0      -0.1     -12.7      -0.2      -5.0
  9 H                -0.9       0.2      -0.0      -0.7      -0.0      -0.1
 10 H                 0.3      -0.2      -0.0      -0.3      -0.1      -0.8

                     72        73        74        75        76        77   
                   0.00000   0.00000   0.00000   0.00000   0.00000   0.00000
                   0.00053   0.00044   0.00002   0.00182   0.00106   0.00016
                  --------  --------  --------  --------  --------  --------
  1 C                -1.7      -0.2      -0.1       0.5      -0.0       0.1
  2 N               -18.1      -1.0      -2.5      -1.1      -0.4      -4.0
  3 C               261.8     110.1     110.1     -22.3      -5.2     -21.1
  4 O                -3.4      -0.5      -0.4     124.3     106.0     132.4
  5 C              -123.5      -7.7      -6.2      -0.2      -0.2      -6.4
  6 N               -15.7      -0.7      -0.7      -0.6      -0.1      -1.0
  9 H                -0.0      -0.0      -0.0      -0.6      -0.0      -0.1
 10 H                 0.7       0.0      -0.1      -0.0      -0.0       0.1

                     78        79        80        81        82        83   
                   0.00000   0.00000   0.00000   0.00000   0.00000   0.00000
                   0.00005   0.00002   0.00001   0.00001   0.00000   0.00000
                  --------  --------  --------  --------  --------  --------
  2 N                -1.4      -0.1      -0.3      -0.0      -0.1      -0.1
  3 C                -9.7      -3.6      -3.3      -0.2      -0.7      -3.0
  4 O               112.2     104.6     104.1     100.2     101.0     103.2
  5 C                -0.7      -0.8      -0.4      -0.0      -0.2      -0.0
  6 N                -0.3      -0.0      -0.0      -0.0      -0.1      -0.0
  9 H                -0.0      -0.0      -0.1      -0.0      -0.0      -0.0

                     84        85        86        87        88        89   
                   0.00000   0.00000   0.00000   0.00000   0.00000   0.00000
                   0.01583   0.00547   0.00297   0.00098   0.00019   0.00016
                  --------  --------  --------  --------  --------  --------
  0 C                -0.1      -0.7      -0.3      -0.0      -0.0      -0.0
  1 C                -0.4      -3.0      -0.7      -0.0      -0.1      -0.0
  2 N                -3.1      -0.5      -1.4      -0.0      -0.6       0.0
  3 C               -25.7    -166.0     -50.7      -3.3     -13.7      -5.1
  4 O                -0.9      -7.6       0.5      -0.0       0.0      -0.2
  5 C               307.3     276.3     160.4     110.4     117.7     109.4
  6 N              -176.9       5.4      -7.7      -7.0      -3.3      -4.1
  9 H                -0.0      -0.1      -0.0      -0.0       0.0      -0.0
 10 H                -0.2      -3.7      -0.0       0.0       0.0      -0.0

                     90        91        92        93        94        95   
                   0.00000   0.00000   0.00000   0.00000   0.00000   0.00000
                   0.00005   0.00001   0.00001   0.00213   0.00016   0.00016
                  --------  --------  --------  --------  --------  --------
  0 C                -0.0      -0.0      -0.0      -0.3      -0.0      -0.0
  1 C                -0.1      -0.0      -0.0      -0.5      -0.0      -0.0
  2 N                 0.1      -0.4       0.0      -0.6      -0.0      -0.0
  3 C                -4.6      -0.7      -1.8     -37.9      -0.5       2.1
  4 O                -0.0      -0.0      -0.1      -1.8      -0.1      -0.0
  5 C               109.8     102.0     103.4    -131.4      -9.1      -2.9
  6 N                -5.2      -0.7      -1.6     272.5     109.7     100.9

                     96        97        98        99       100       101   
                   0.00000   0.00000   0.00000   0.00000   0.00000   0.00000
                   0.00010   0.00000   0.00000   0.00000   0.00000   0.00000
                  --------  --------  --------  --------  --------  --------
  2 N                -0.2       0.0      -0.0      -0.0      -0.1       0.0
  3 C                -3.9       0.0      -0.0      -0.0      -0.2      -0.0
  4 O                -0.0      -0.0      -0.0      -0.0      -0.1      -0.0
  5 C               -21.6      -1.3      -0.3      -4.0      -3.4      -0.3
  6 N               126.0     101.3     100.3     104.1     103.8     100.3
 10 H                -0.1      -0.0      -0.0      -0.0      -0.0      -0.0

                    102       103       104       105       106       107   
                   0.00000   0.00000   0.00000   0.00000   0.00000   0.00000
                   0.00103   0.00027   0.00010   0.00004   0.00172   0.00026
                  --------  --------  --------  --------  --------  --------
  0 C               -41.5      -3.3      -3.3      -9.6     -42.7      -3.2
  1 C                 0.6      -0.0      -0.5       0.3       0.8      -0.0
  2 N                 0.1      -0.0      -0.0      -0.1      -0.5      -0.0
  7 H               143.3     103.5     104.5     109.7      -1.2      -0.1
  8 H                -1.2      -0.1      -0.6      -0.2     145.5     103.4
  9 H                -1.2      -0.0       0.0      -0.1       0.1      -0.0
 10 H                -0.0      -0.0      -0.0      -0.0      -1.9      -0.0

                    108       109       110       111       112       113   
                   0.00000   0.00000   0.00000   0.00000   0.00000   0.00000
                   0.00011   0.00004   0.00383   0.00017   0.00007   0.00003
                  --------  --------  --------  --------  --------  --------
  0 C                -3.2      -8.5      -2.9      -0.1      -0.0       0.7
  1 C                -0.5       0.1     -44.3      -3.2      -7.7      -6.6
  2 N                -0.0      -0.0      -0.8      -0.1      -0.3      -1.0
  3 C                -0.0       0.0      -1.9      -0.0      -0.1      -0.0
  4 O                 0.0      -0.0      -0.6      -0.0      -0.1      -0.0
  5 C                -0.0      -0.0      -0.1      -0.0      -0.0       0.0
  7 H                -0.6      -0.1      -1.1      -0.0      -0.1      -0.0
  8 H               104.4     108.8       0.1      -0.0      -0.0       0.0
  9 H                -0.0       0.0     151.6     103.4     108.4     107.0
 10 H                -0.0      -0.2       0.0      -0.0      -0.0      -0.0

                    114       115       116       117   
                   0.00000   0.00000   0.00000   0.00000
                   0.00294   0.00046   0.00013   0.00004
                  --------  --------  --------  --------
  0 C                -0.6      -0.0      -0.0      -0.0
  1 C                -2.0      -0.1      -0.4      -0.1
  2 N               -10.1      -3.3      -3.4      -5.3
  3 C                -0.8      -0.1      -0.2      -0.3
  5 C                -3.7      -0.0      -0.1      -0.1
  8 H                -2.0      -0.0      -0.0      -0.1
 10 H               119.3     103.6     104.2     106.0

Storing NBOs: 5393.nbo
                                    *** NBOs were stored ***

                                *** returned from GENNBO program ***

-------
TIMINGS
-------

Total SCF time: 0 days 0 hours 0 min 4 sec 

Total time                  ....       4.255 sec
Sum of individual times     ....       4.614 sec  (108.4%)

Fock matrix formation       ....       2.761 sec  ( 64.9%)
  Coulomb formation         ....       1.622 sec  ( 58.7% of F)
  Split-RI-J                ....       1.615 sec  ( 58.5% of F)
  XC integration            ....       1.135 sec  ( 41.1% of F)
    Basis function eval.    ....       0.400 sec  ( 35.3% of XC)
    Density eval.           ....       0.203 sec  ( 17.9% of XC)
    XC-Functional eval.     ....       0.088 sec  (  7.8% of XC)
    XC-Potential eval.      ....       0.415 sec  ( 36.5% of XC)
Diagonalization             ....       0.021 sec  (  0.5%)
Density matrix formation    ....       0.002 sec  (  0.0%)
Population analysis         ....       1.031 sec  ( 24.2%)
Initial guess               ....       0.271 sec  (  6.4%)
Orbital Transformation      ....       0.000 sec  (  0.0%)
Orbital Orthonormalization  ....       0.000 sec  (  0.0%)
DIIS solution               ....       0.005 sec  (  0.1%)
SOSCF solution              ....       0.008 sec  (  0.2%)
Grid generation             ....       0.515 sec  ( 12.1%)
           ************************************************************
           *              Shut down parallel processing               *
           ************************************************************

-------------------------   --------------------
FINAL SINGLE POINT ENERGY      -338.880156531008
-------------------------   --------------------


                            ***************************************
                            *     ORCA property calculations      *
                            ***************************************

                                    ---------------------
                                    Active property flags
                                    ---------------------
   (+) Dipole Moment


------------------------------------------------------------------------------
                       ORCA ELECTRIC PROPERTIES CALCULATION
------------------------------------------------------------------------------

Dipole Moment Calculation                       ... on
Quadrupole Moment Calculation                   ... off
Polarizability Calculation                      ... off
GBWName                                         ... 5393.gbw
Electron density file                           ... 5393.scfp.tmp

-------------
DIPOLE MOMENT
-------------
                                X             Y             Z
Electronic contribution:      6.50308       3.14666      -0.50215
Nuclear contribution   :     -8.08770      -3.40480       0.58286
                        -----------------------------------------
Total Dipole Moment    :     -1.58462      -0.25815       0.08071
                        -----------------------------------------
Magnitude (a.u.)       :      1.60754
Magnitude (Debye)      :      4.08604


Timings for individual modules:

Sum of individual times         ...        5.327 sec (=   0.089 min)
GTO integral calculation        ...        0.465 sec (=   0.008 min)   8.7 %
SCF iterations                  ...        4.861 sec (=   0.081 min)  91.3 %
                             ****ORCA TERMINATED NORMALLY****
TOTAL RUN TIME: 0 days 0 hours 0 minutes 5 seconds 721 msec
