
                                 *****************
                                 * O   R   C   A *
                                 *****************

           --- An Ab Initio, DFT and Semiempirical electronic structure package ---

                  #######################################################
                  #                        -***-                        #
                  #  Department of molecular theory and spectroscopy    #
                  #              Directorship: Frank Neese              #
                  # Max Planck Institute for Chemical Energy Conversion #
                  #                  D-45470 Muelheim/Ruhr              #
                  #                       Germany                       #
                  #                                                     #
                  #                  All rights reserved                #
                  #                        -***-                        #
                  #######################################################


                         Program Version 3.0.3 - RELEASE   -


 With contributions from (in alphabetic order):
   Ute Becker             : Parallelization
   Dmytro Bykov           : SCF Hessian
   Dmitry Ganyushin       : Spin-Orbit,Spin-Spin,Magnetic field MRCI
   Andreas Hansen         : Spin unrestricted coupled pair/coupled cluster methods
   Dimitrios Liakos       : Extrapolation schemes; parallel MDCI
   Robert Izsak           : Overlap fitted RIJCOSX, COSX-SCS-MP3
   Christian Kollmar      : KDIIS, OOCD, Brueckner-CCSD(T), CCSD density
   Simone Kossmann        : Meta GGA functionals, TD-DFT gradient, OOMP2, MP2 Hessian
   Taras Petrenko         : DFT Hessian,TD-DFT gradient, ASA and ECA modules, normal mode analysis, Resonance Raman, ABS, FL, XAS/XES, NRVS
   Christoph Reimann      : Effective Core Potentials
   Michael Roemelt        : Restricted open shell CIS
   Christoph Riplinger    : Improved optimizer, TS searches, QM/MM, DLPNO-CCSD
   Barbara Sandhoefer     : DKH picture change effects
   Igor Schapiro          : Molecular dynamics
   Kantharuban Sivalingam : CASSCF convergence, NEVPT2
   Boris Wezisla          : Elementary symmetry handling
   Frank Wennmohs         : Technical directorship


 We gratefully acknowledge several colleagues who have allowed us to
 interface, adapt or use parts of their codes:
   Stefan Grimme, W. Hujo, H. Kruse, T. Risthaus : VdW corrections, initial TS optimization,
                                                   DFT functionals, gCP
   Ed Valeev                                     : LibInt (2-el integral package), F12 methods
   Garnet Chan, S. Sharma, R. Olivares           : DMRG
   Ulf Ekstrom                                   : XCFun DFT Library
   Mihaly Kallay                                 : mrcc  (arbitrary order and MRCC methods)
   Andreas Klamt, Michael Diedenhofen            : otool_cosmo (COSMO solvation model)
   Frank Weinhold                                : gennbo (NPA and NBO analysis)
   Christopher J. Cramer and Donald G. Truhlar   : smd solvation model


 Your calculation uses the libint2 library for the computation of 2-el integrals
 For citations please refer to: http://libint.valeyev.net

 This ORCA versions uses:
   CBLAS   interface :  Fast vector & matrix operations
   LAPACKE interface :  Fast linear algebra routines
   SCALAPACK package :  Parallel linear algebra routines


Your calculation utilizes the basis: Ahlrichs-VDZ
Cite in your paper:
H - Kr: A. Schaefer, H. Horn and R. Ahlrichs, J. Chem. Phys. 97, 2571 (1992).

Your calculation utilizes the basis: Ahlrichs SVPalls1+f
Cite in your paper:
Rb - Xe: A. Schaefer, C. Huber and R. Ahlrichs, J. Chem. Phys. 100, 5829 (1994).

================================================================================
                                        WARNINGS
                       Please study these warnings very carefully!
================================================================================
Now building the actual basis set


INFO   : the flag for use of LIBINT has been found!

================================================================================
                                       INPUT FILE
================================================================================
NAME = 5461.inp
|  1> ! RI PBE def2-SVP def2-SVP/J NBO PAL2
|  2> % maxcore 2000
|  3> % output
|  4>     # printlevel mini
|  5>     print[ P_Basis ] 0
|  6>     print[ P_SCFInfo ] 1
|  7>     print[ P_SCFIterInfo ] 1
|  8>     print[ P_OrbEn ] 0
|  9>     print[ P_Cartesian ] 0
| 10> end
| 11> *xyz 0 1
| 12>  C        2.6854160000     1.3558450000     0.3549740000 
| 13>  C        2.4010430000    -0.1031920000     0.0588300000 
| 14>  O        2.8257250000    -0.4669830000    -1.2429630000 
| 15>  C        2.9811120000    -1.0145460000     1.1193610000 
| 16>  N        3.1545100000    -2.4323340000     0.8398540000 
| 17>  C        4.3361270000    -1.5858860000     1.0113810000 
| 18>  C        5.1929370000    -1.8510620000     2.2121600000 
| 19>  H        2.2125500000     1.9983900000    -0.3901530000 
| 20>  H        3.7639460000     1.5463560000     0.3482830000 
| 21>  H        2.3076740000     1.6361100000     1.3409100000 
| 22>  H        1.3161200000    -0.2605470000     0.0454890000 
| 23>  H        3.6949650000    -0.0851020000    -1.3936950000 
| 24>  H        2.6012820000    -0.8077750000     2.1187090000 
| 25>  H        2.9952610000    -2.5762350000    -0.1543940000 
| 26>  H        4.8831210000    -1.3492150000     0.1002600000 
| 27>  H        4.5703150000    -2.0961810000     3.0745340000 
| 28>  H        5.8040220000    -0.9791960000     2.4616070000 
| 29>  H        5.8638820000    -2.6953280000     2.0328430000 
| 30> *
| 31> 
| 32>                          ****END OF INPUT****
================================================================================

                       ****************************
                       * Single Point Calculation *
                       ****************************

--------------------------------
INTERNAL COORDINATES (ANGSTROEM)
--------------------------------
 C      0   0   0   0.000000     0.000     0.000
 C      1   0   0   1.515704     0.000     0.000
 O      2   1   0   1.416815   111.743     0.000
 C      2   1   3   1.513860   111.761   126.372
 N      4   2   1   1.455443   119.838   197.480
 C      5   4   2   1.463596    60.680   112.296
 C      6   5   4   1.498770   116.943   113.384
 H      1   2   3   1.091641   110.608    56.760
 H      1   2   3   1.095247   110.549   296.358
 H      1   2   3   1.092386   111.004   177.101
 H      2   1   3   1.096356   109.038   245.119
 H      3   2   1   0.961318   108.246    43.735
 H      4   2   1   1.088908   113.263    58.715
 H      5   4   2   1.017151   107.871    10.298
 H      6   5   4   1.088741   115.674   253.668
 H      7   6   5   1.091527   110.281   321.549
 H      7   6   5   1.093526   111.171   201.138
 H      7   6   5   1.093209   110.860    80.903

---------------------------
INTERNAL COORDINATES (A.U.)
---------------------------
 C      0   0   0   0.000000     0.000     0.000
 C      1   0   0   2.864265     0.000     0.000
 O      2   1   0   2.677392   111.743     0.000
 C      2   1   3   2.860781   111.761   126.372
 N      4   2   1   2.750388   119.838   197.480
 C      5   4   2   2.765796    60.680   112.296
 C      6   5   4   2.832265   116.943   113.384
 H      1   2   3   2.062903   110.608    56.760
 H      1   2   3   2.069717   110.549   296.358
 H      1   2   3   2.064310   111.004   177.101
 H      2   1   3   2.071813   109.038   245.119
 H      3   2   1   1.816627   108.246    43.735
 H      4   2   1   2.057739   113.263    58.715
 H      5   4   2   1.922137   107.871    10.298
 H      6   5   4   2.057422   115.674   253.668
 H      7   6   5   2.062686   110.281   321.549
 H      7   6   5   2.066465   111.171   201.138
 H      7   6   5   2.065866   110.860    80.903



           ************************************************************
           *        Program running with 2 parallel MPI-processes     *
           *              working on a common directory               *
           ************************************************************
------------------------------------------------------------------------------
                           ORCA GTO INTEGRAL CALCULATION
                           -- RI-GTO INTEGRALS CHOSEN --
------------------------------------------------------------------------------

                         BASIS SET STATISTICS AND STARTUP INFO

Gaussian basis set:
 # of primitive gaussian shells          ...  139
 # of primitive gaussian functions       ...  245
 # of contracted shells                  ...   75
 # of contracted basis functions         ...  153
 Highest angular momentum                ...    2
 Maximum contraction depth               ...    5
Auxiliary gaussian basis set:
 # of primitive gaussian shells          ...  256
 # of primitive gaussian functions       ...  666
 # of contracted shells                  ...  160
 # of contracted aux-basis functions     ...  464
 Highest angular momentum                ...    4
 Maximum contraction depth               ...    7
Ratio of auxiliary to basis functions    ...  3.03
Integral package used                  ... LIBINT
 One Electron integrals                  ... done
 Ordering auxiliary basis shells         ... done
 Integral threshhold             Thresh  ...  1.000e-10
 Primitive cut-off               TCut    ...  1.000e-11
 Pre-screening matrix                    ... done
 Shell pair data                         ... 
 Ordering of the shell pairs             ... done (   0.000 sec) 2745 of 2850 pairs
 Determination of significant pairs      ... done (   0.000 sec)
 Creation of shell pair data             ... done (   0.000 sec)
 Storage of shell pair data              ... done (   0.001 sec)
 Shell pair data done in (   0.002 sec)
 Computing two index integrals           ... done
 Cholesky decomposition of the V-matrix  ... done


Timings:
 Total evaluation time                   ...   0.159 sec (  0.003 min)
 One electron matrix time                ...   0.021 sec (  0.000 min) = 13.4%
 Schwartz matrix evaluation time         ...   0.073 sec (  0.001 min) = 45.7%
 Two index repulsion integral time       ...   0.005 sec (  0.000 min) =  3.1%
 Cholesky decomposition of V             ...   0.004 sec (  0.000 min) =  2.2%
 Three index repulsion integral time     ...   0.000 sec (  0.000 min) =  0.0%

           ************************************************************
           *              Shut down parallel processing               *
           ************************************************************


           ************************************************************
           *        Program running with 2 parallel MPI-processes     *
           *              working on a common directory               *
           ************************************************************
-------------------------------------------------------------------------------
                                 ORCA SCF
-------------------------------------------------------------------------------

------------
SCF SETTINGS
------------
Hamiltonian:
 Density Functional     Method          .... DFT(GTOs)
 Exchange Functional    Exchange        .... PBE
   PBE kappa parameter  XKappa          ....  0.804000
 Correlation Functional Correlation     .... PBE
 LDA part of GGA corr.  LDAOpt          .... PW91-LDA
 Gradients option       PostSCFGGA      .... off
   NL short-range parameter             ....  6.400000
 RI-approximation to the Coulomb term is turned on
   Number of auxiliary basis functions  .... 464


General Settings:
 Integral files         IntName         .... 5461
 Hartree-Fock type      HFTyp           .... RHF
 Total Charge           Charge          ....    0
 Multiplicity           Mult            ....    1
 Number of Electrons    NEL             ....   56
 Basis Dimension        Dim             ....  153
 Nuclear Repulsion      ENuc            ....    324.7154311938 Eh

Convergence Acceleration:
 DIIS                   CNVDIIS         .... on
   Start iteration      DIISMaxIt       ....    12
   Startup error        DIISStart       ....  0.200000
   # of expansion vecs  DIISMaxEq       ....     5
   Bias factor          DIISBfac        ....   1.050
   Max. coefficient     DIISMaxC        ....  10.000
 Newton-Raphson         CNVNR           .... off
 SOSCF                  CNVSOSCF        .... on
   Start iteration      SOSCFMaxIt      ....   150
   Startup grad/error   SOSCFStart      ....  0.003300
 Level Shifting         CNVShift        .... on
   Level shift para.    LevelShift      ....    0.2500
   Turn off err/grad.   ShiftErr        ....    0.0010
 Zerner damping         CNVZerner       .... off
 Static damping         CNVDamp         .... on
   Fraction old density DampFac         ....    0.7000
   Max. Damping (<1)    DampMax         ....    0.9800
   Min. Damping (>=0)   DampMin         ....    0.0000
   Turn off err/grad.   DampErr         ....    0.1000
 Fernandez-Rico         CNVRico         .... off

SCF Procedure:
 Maximum # iterations   MaxIter         ....   125
 SCF integral mode      SCFMode         .... Direct
   Integral package                     .... LIBINT
 Reset frequeny         DirectResetFreq ....    20
 Integral Threshold     Thresh          ....  1.000e-10 Eh
 Primitive CutOff       TCut            ....  1.000e-11 Eh

Convergence Tolerance:
 Convergence Check Mode ConvCheckMode   .... Total+1el-Energy
 Energy Change          TolE            ....  1.000e-06 Eh
 1-El. energy change                    ....  1.000e-03 Eh
 Orbital Gradient       TolG            ....  5.000e-05
 Orbital Rotation angle TolX            ....  5.000e-05
 DIIS Error             TolErr          ....  1.000e-06


Diagonalization of the overlap matrix:
Smallest eigenvalue                        ... 1.102e-03
Time for diagonalization                   ...    0.012 sec
Threshold for overlap eigenvalues          ... 1.000e-08
Number of eigenvalues below threshold      ... 0
Time for construction of square roots      ...    0.003 sec
Total time needed                          ...    0.016 sec

-------------------
DFT GRID GENERATION
-------------------

General Integration Accuracy     IntAcc      ...  4.340
Radial Grid Type                 RadialGrid  ... Gauss-Chebyshev
Angular Grid (max. acc.)         AngularGrid ... Lebedev-110
Angular grid pruning method      GridPruning ... 3 (G Style)
Weight generation scheme         WeightScheme... Becke
Basis function cutoff            BFCut       ...    1.0000e-10
Integration weight cutoff        WCut        ...    1.0000e-14
Grids for H and He will be reduced by one unit

# of grid points (after initial pruning)     ...  20432 (   0.0 sec)
# of grid points (after weights+screening)   ...  18773 (   0.1 sec)
nearest neighbour list constructed           ...    0.0 sec
Grid point re-assignment to atoms done       ...    0.0 sec
Grid point division into batches done        ...    0.0 sec
Reduced shell lists constructed in    0.1 sec

Total number of grid points                  ...    18773
Total number of batches                      ...      302
Average number of points per batch           ...       62
Average number of grid points per atom       ...     1043
Average number of shells per batch           ...    57.36 (76.48%)
Average number of basis functions per batch  ...   114.36 (74.75%)
Average number of large shells per batch     ...    45.64 (79.57%)
Average number of large basis fcns per batch ...    89.08 (77.89%)
Maximum spatial batch extension              ...  18.96, 17.95, 23.00 au
Average spatial batch extension              ...   1.44,  1.39,  1.45 au

Time for grid setup =    0.163 sec

------------------------------
INITIAL GUESS: MODEL POTENTIAL
------------------------------
Loading Hartree-Fock densities                     ... done
Calculating cut-offs                               ... done
Setting up the integral package                    ... done
Initializing the effective Hamiltonian             ... done
Starting the Coulomb interaction                   ... done (   0.1 sec)
Reading the grid                                   ... done
Mapping shells                                     ... done
Starting the XC term evaluation                    ... done (   0.1 sec)
  promolecular density results
     # of electrons  =     55.986927396
     EX              =    -43.542365146
     EC              =     -1.849568251
     EX+EC           =    -45.391933397
Transforming the Hamiltonian                       ... done (   0.0 sec)
Diagonalizing the Hamiltonian                      ... done (   0.0 sec)
Back transforming the eigenvectors                 ... done (   0.0 sec)
Now organizing SCF variables                       ... done
                      ------------------
                      INITIAL GUESS DONE (   0.4 sec)
                      ------------------
--------------
SCF ITERATIONS
--------------
ITER       Energy         Delta-E        Max-DP      RMS-DP      [F,P]     Damp
               ***  Starting incremental Fock matrix formation  ***
  0   -326.2272391273   0.000000000000 0.07687216  0.00279344  0.2121478 0.7000
  1   -326.3294312033  -0.102192075981 0.04195791  0.00195017  0.0814023 0.7000
                               ***Turning on DIIS***
  2   -326.3643550020  -0.034923798658 0.05150842  0.00293386  0.0244506 0.0000
  3   -326.4171686776  -0.052813675642 0.03151868  0.00130947  0.0486533 0.0000
  4   -326.4326414027  -0.015472725118 0.00814068  0.00040519  0.0111772 0.0000
  5   -326.4335158270  -0.000874424310 0.00409900  0.00017749  0.0057305 0.0000
                      *** Initiating the SOSCF procedure ***
                           *** Shutting down DIIS ***
                      *** Re-Reading the Fockian *** 
                      *** Removing any level shift *** 
ITER      Energy       Delta-E        Grad      Rot      Max-DP    RMS-DP
  6   -326.43362621  -0.0001103796  0.000215  0.000215  0.002757  0.000100
               *** Restarting incremental Fock matrix formation ***
  7   -326.43363112  -0.0000049164  0.000131  0.000284  0.000973  0.000037
  8   -326.43362888   0.0000022440  0.000249  0.000194  0.000683  0.000023
  9   -326.43363207  -0.0000031906  0.000019  0.000038  0.000107  0.000005
 10   -326.43363202   0.0000000454  0.000035  0.000025  0.000081  0.000003
                 **** Energy Check signals convergence ****
              ***Rediagonalizing the Fockian in SOSCF/NRSCF***

               *****************************************************
               *                     SUCCESS                       *
               *           SCF CONVERGED AFTER  11 CYCLES          *
               *****************************************************

Setting up the final grid:

General Integration Accuracy     IntAcc      ...  4.670
Radial Grid Type                 RadialGrid  ... Gauss-Chebyshev
Angular Grid (max. acc.)         AngularGrid ... Lebedev-302
Angular grid pruning method      GridPruning ... 3 (G Style)
Weight generation scheme         WeightScheme... Becke
Basis function cutoff            BFCut       ...    1.0000e-10
Integration weight cutoff        WCut        ...    1.0000e-14
Grids for H and He will be reduced by one unit

# of grid points (after initial pruning)     ...  80818 (   0.0 sec)
# of grid points (after weights+screening)   ...  73135 (   0.1 sec)
nearest neighbour list constructed           ...    0.0 sec
Grid point re-assignment to atoms done       ...    0.0 sec
Grid point division into batches done        ...    0.2 sec
Reduced shell lists constructed in    0.5 sec

Total number of grid points                  ...    73135
Total number of batches                      ...     1151
Average number of points per batch           ...       63
Average number of grid points per atom       ...     4063
Average number of shells per batch           ...    53.59 (71.45%)
Average number of basis functions per batch  ...   106.01 (69.29%)
Average number of large shells per batch     ...    41.89 (78.17%)
Average number of large basis fcns per batch ...    80.97 (76.38%)
Maximum spatial batch extension              ...  16.20, 16.14, 16.16 au
Average spatial batch extension              ...   0.96,  0.94,  0.94 au

Final grid set up in    0.6 sec
Final integration                            ... done (   0.5 sec)
Change in XC energy                          ...     0.000531701
Integrated number of electrons               ...    55.999658620
Previous integrated no of electrons          ...    55.998168980

----------------
TOTAL SCF ENERGY
----------------

Total Energy       :         -326.43310039 Eh           -8882.69625 eV

Components:
Nuclear Repulsion  :          324.71543119 Eh            8835.95609 eV
Electronic Energy  :         -651.14853158 Eh          -17718.65234 eV

One Electron Energy:        -1085.58792064 Eh          -29540.34912 eV
Two Electron Energy:          434.43938906 Eh           11821.69678 eV

Virial components:
Potential Energy   :         -649.83018352 Eh          -17682.77827 eV
Kinetic Energy     :          323.39708314 Eh            8800.08202 eV
Virial Ratio       :            2.00938789


DFT components:
N(Alpha)           :       27.999829310157 electrons
N(Beta)            :       27.999829310157 electrons
N(Total)           :       55.999658620314 electrons
E(X)               :      -44.473758535324 Eh       
E(C)               :       -1.866710829873 Eh       
E(XC)              :      -46.340469365197 Eh       

---------------
SCF CONVERGENCE
---------------

  Last Energy change         ...   -6.1931e-08  Tolerance :   1.0000e-06
  Last MAX-Density change    ...    1.9321e-05  Tolerance :   1.0000e-05
  Last RMS-Density change    ...    9.0384e-07  Tolerance :   1.0000e-06
  Last Orbital Gradient      ...    3.5226e-06  Tolerance :   5.0000e-05
  Last Orbital Rotation      ...    6.2502e-06  Tolerance :   5.0000e-05

             **** THE GBW FILE WAS UPDATED (5461.gbw) ****
             **** DENSITY FILE WAS UPDATED (5461.scfp.tmp) ****
             **** ENERGY FILE WAS UPDATED (5461.en.tmp) ****

                    ********************************
                    * MULLIKEN POPULATION ANALYSIS *
                    ********************************

-----------------------
MULLIKEN ATOMIC CHARGES
-----------------------
   0 C :    0.007471
   1 C :    0.132472
   2 O :   -0.276623
   3 C :   -0.049411
   4 N :   -0.154059
   5 C :   -0.150664
   6 C :    0.103358
   7 H :    0.032520
   8 H :    0.010129
   9 H :    0.021925
  10 H :    0.017529
  11 H :    0.155445
  12 H :    0.004611
  13 H :    0.098722
  14 H :   -0.006231
  15 H :    0.012076
  16 H :    0.017480
  17 H :    0.023251
Sum of atomic charges:    0.0000000

--------------------------------
MULLIKEN REDUCED ORBITAL CHARGES
--------------------------------
  0 C s       :     2.985960  s :     2.985960
      pz      :     1.012486  p :     2.982182
      px      :     0.996274
      py      :     0.973422
      dz2     :     0.005163  d :     0.024386
      dxz     :     0.002679
      dyz     :     0.005189
      dx2y2   :     0.006872
      dxy     :     0.004483
  1 C s       :     2.988349  s :     2.988349
      pz      :     0.801726  p :     2.809335
      px      :     1.043980
      py      :     0.963628
      dz2     :     0.021030  d :     0.069844
      dxz     :     0.012051
      dyz     :     0.017807
      dx2y2   :     0.012304
      dxy     :     0.006652
  2 O s       :     3.736642  s :     3.736642
      pz      :     1.425646  p :     4.527340
      px      :     1.356373
      py      :     1.745321
      dz2     :     0.004428  d :     0.012641
      dxz     :     0.001503
      dyz     :     0.002472
      dx2y2   :     0.001958
      dxy     :     0.002281
  3 C s       :     3.148391  s :     3.148391
      pz      :     1.000543  p :     2.844440
      px      :     0.971648
      py      :     0.872250
      dz2     :     0.009534  d :     0.056579
      dxz     :     0.006870
      dyz     :     0.012591
      dx2y2   :     0.015580
      dxy     :     0.012004
  4 N s       :     3.565553  s :     3.565553
      pz      :     1.246985  p :     3.560414
      px      :     1.124201
      py      :     1.189228
      dz2     :     0.007811  d :     0.028092
      dxz     :     0.001735
      dyz     :     0.003195
      dx2y2   :     0.007563
      dxy     :     0.007788
  5 C s       :     3.172130  s :     3.172130
      pz      :     1.051241  p :     2.919549
      px      :     0.879772
      py      :     0.988536
      dz2     :     0.010302  d :     0.058985
      dxz     :     0.014763
      dyz     :     0.006087
      dx2y2   :     0.011954
      dxy     :     0.015879
  6 C s       :     2.923067  s :     2.923067
      pz      :     0.980651  p :     2.948525
      px      :     0.972107
      py      :     0.995767
      dz2     :     0.005945  d :     0.025050
      dxz     :     0.006570
      dyz     :     0.002957
      dx2y2   :     0.001556
      dxy     :     0.008023
  7 H s       :     0.943913  s :     0.943913
      pz      :     0.009373  p :     0.023567
      px      :     0.006883
      py      :     0.007311
  8 H s       :     0.965916  s :     0.965916
      pz      :     0.005792  p :     0.023955
      px      :     0.013251
      py      :     0.004911
  9 H s       :     0.954012  s :     0.954012
      pz      :     0.012113  p :     0.024063
      px      :     0.006614
      py      :     0.005336
 10 H s       :     0.962543  s :     0.962543
      pz      :     0.002331  p :     0.019928
      px      :     0.013142
      py      :     0.004455
 11 H s       :     0.774678  s :     0.774678
      pz      :     0.016191  p :     0.069876
      px      :     0.032383
      py      :     0.021303
 12 H s       :     0.974113  s :     0.974113
      pz      :     0.012465  p :     0.021277
      px      :     0.005658
      py      :     0.003153
 13 H s       :     0.854250  s :     0.854250
      pz      :     0.023927  p :     0.047028
      px      :     0.010832
      py      :     0.012269
 14 H s       :     0.984764  s :     0.984764
      pz      :     0.010521  p :     0.021468
      px      :     0.005425
      py      :     0.005522
 15 H s       :     0.964132  s :     0.964132
      pz      :     0.009996  p :     0.023792
      px      :     0.007768
      py      :     0.006028
 16 H s       :     0.958643  s :     0.958643
      pz      :     0.005439  p :     0.023877
      px      :     0.007896
      py      :     0.010542
 17 H s       :     0.952764  s :     0.952764
      pz      :     0.005016  p :     0.023986
      px      :     0.008427
      py      :     0.010543


                     *******************************
                     * LOEWDIN POPULATION ANALYSIS *
                     *******************************

----------------------
LOEWDIN ATOMIC CHARGES
----------------------
   0 C :   -0.074140
   1 C :    0.036053
   2 O :   -0.102009
   3 C :   -0.026436
   4 N :   -0.098418
   5 C :   -0.014198
   6 C :   -0.062328
   7 H :    0.030135
   8 H :    0.023414
   9 H :    0.034779
  10 H :    0.027701
  11 H :    0.065427
  12 H :    0.019002
  13 H :    0.046913
  14 H :    0.003110
  15 H :    0.032158
  16 H :    0.027851
  17 H :    0.030983

-------------------------------
LOEWDIN REDUCED ORBITAL CHARGES
-------------------------------
  0 C s       :     2.845050  s :     2.845050
      pz      :     1.070206  p :     3.160355
      px      :     1.064571
      py      :     1.025577
      dz2     :     0.015017  d :     0.068735
      dxz     :     0.007730
      dyz     :     0.014422
      dx2y2   :     0.021060
      dxy     :     0.010506
  1 C s       :     2.841105  s :     2.841105
      pz      :     0.883847  p :     2.961281
      px      :     1.046234
      py      :     1.031201
      dz2     :     0.048625  d :     0.161560
      dxz     :     0.024331
      dyz     :     0.041704
      dx2y2   :     0.033057
      dxy     :     0.013842
  2 O s       :     3.444222  s :     3.444222
      pz      :     1.459899  p :     4.633371
      px      :     1.432258
      py      :     1.741214
      dz2     :     0.009186  d :     0.024416
      dxz     :     0.002887
      dyz     :     0.003904
      dx2y2   :     0.003790
      dxy     :     0.004648
  3 C s       :     2.841220  s :     2.841220
      pz      :     1.053926  p :     3.049493
      px      :     1.049177
      py      :     0.946390
      dz2     :     0.025232  d :     0.135723
      dxz     :     0.018121
      dyz     :     0.029270
      dx2y2   :     0.036591
      dxy     :     0.026510
  4 N s       :     3.221408  s :     3.221408
      pz      :     1.328090  p :     3.819693
      px      :     1.204588
      py      :     1.287014
      dz2     :     0.018171  d :     0.057317
      dxz     :     0.003428
      dyz     :     0.005420
      dx2y2   :     0.015073
      dxy     :     0.015225
  5 C s       :     2.831800  s :     2.831800
      pz      :     1.062662  p :     3.044292
      px      :     0.953921
      py      :     1.027708
      dz2     :     0.025454  d :     0.138107
      dxz     :     0.038469
      dyz     :     0.011331
      dx2y2   :     0.025666
      dxy     :     0.037186
  6 C s       :     2.836641  s :     2.836641
      pz      :     1.043651  p :     3.154929
      px      :     1.049107
      py      :     1.062171
      dz2     :     0.015910  d :     0.070758
      dxz     :     0.020343
      dyz     :     0.007677
      dx2y2   :     0.004170
      dxy     :     0.022657
  7 H s       :     0.902205  s :     0.902205
      pz      :     0.025974  p :     0.067660
      px      :     0.018071
      py      :     0.023615
  8 H s       :     0.909655  s :     0.909655
      pz      :     0.013238  p :     0.066931
      px      :     0.039245
      py      :     0.014448
  9 H s       :     0.897729  s :     0.897729
      pz      :     0.035592  p :     0.067491
      px      :     0.016110
      py      :     0.015789
 10 H s       :     0.907354  s :     0.907354
      pz      :     0.009383  p :     0.064946
      px      :     0.041805
      py      :     0.013757
 11 H s       :     0.749753  s :     0.749753
      pz      :     0.039341  p :     0.184819
      px      :     0.087064
      py      :     0.058415
 12 H s       :     0.910886  s :     0.910886
      pz      :     0.039241  p :     0.070112
      px      :     0.018258
      py      :     0.012614
 13 H s       :     0.824387  s :     0.824387
      pz      :     0.071311  p :     0.128700
      px      :     0.027419
      py      :     0.029971
 14 H s       :     0.924130  s :     0.924130
      pz      :     0.034432  p :     0.072759
      px      :     0.019488
      py      :     0.018840
 15 H s       :     0.901094  s :     0.901094
      pz      :     0.030582  p :     0.066748
      px      :     0.021590
      py      :     0.014576
 16 H s       :     0.906040  s :     0.906040
      pz      :     0.014667  p :     0.066109
      px      :     0.021581
      py      :     0.029861
 17 H s       :     0.902485  s :     0.902485
      pz      :     0.013893  p :     0.066532
      px      :     0.023125
      py      :     0.029514


                      *****************************
                      * MAYER POPULATION ANALYSIS *
                      *****************************

  NA   - Mulliken gross atomic population
  ZA   - Total nuclear charge
  QA   - Mulliken gross atomic charge
  VA   - Mayer's total valence
  BVA  - Mayer's bonded valence
  FA   - Mayer's free valence

  ATOM       NA         ZA         QA         VA         BVA        FA
  0 C      5.9925     6.0000     0.0075     3.9654     3.9654    -0.0000
  1 C      5.8675     6.0000     0.1325     4.0805     4.0805     0.0000
  2 O      8.2766     8.0000    -0.2766     2.1584     2.1584     0.0000
  3 C      6.0494     6.0000    -0.0494     3.9453     3.9453    -0.0000
  4 N      7.1541     7.0000    -0.1541     2.9651     2.9651    -0.0000
  5 C      6.1507     6.0000    -0.1507     4.1547     4.1547    -0.0000
  6 C      5.8966     6.0000     0.1034     3.8989     3.8989     0.0000
  7 H      0.9675     1.0000     0.0325     0.9911     0.9911    -0.0000
  8 H      0.9899     1.0000     0.0101     1.0029     1.0029    -0.0000
  9 H      0.9781     1.0000     0.0219     0.9963     0.9963    -0.0000
 10 H      0.9825     1.0000     0.0175     0.9711     0.9711     0.0000
 11 H      0.8446     1.0000     0.1554     1.0334     1.0334     0.0000
 12 H      0.9954     1.0000     0.0046     0.9876     0.9876     0.0000
 13 H      0.9013     1.0000     0.0987     1.0313     1.0313    -0.0000
 14 H      1.0062     1.0000    -0.0062     1.0013     1.0013    -0.0000
 15 H      0.9879     1.0000     0.0121     1.0091     1.0091     0.0000
 16 H      0.9825     1.0000     0.0175     0.9891     0.9891     0.0000
 17 H      0.9767     1.0000     0.0233     0.9910     0.9910     0.0000

  Mayer bond orders larger than 0.1
B(  0-C ,  1-C ) :   1.1014 B(  0-C ,  7-H ) :   0.9527 B(  0-C ,  8-H ) :   0.9527 
B(  0-C ,  9-H ) :   0.9477 B(  1-C ,  2-O ) :   1.0290 B(  1-C ,  3-C ) :   0.9778 
B(  1-C , 10-H ) :   0.9000 B(  2-O , 11-H ) :   0.9799 B(  3-C ,  4-N ) :   1.0000 
B(  3-C ,  5-C ) :   1.0028 B(  3-C , 12-H ) :   0.9189 B(  4-N ,  5-C ) :   0.9960 
B(  4-N , 13-H ) :   0.9292 B(  5-C ,  6-C ) :   1.0758 B(  5-C , 14-H ) :   0.9278 
B(  6-C , 15-H ) :   0.9432 B(  6-C , 16-H ) :   0.9590 B(  6-C , 17-H ) :   0.9520 



 *********************************** NBO 6.0 ***********************************
             N A T U R A L   A T O M I C   O R B I T A L   A N D
          N A T U R A L   B O N D   O R B I T A L   A N A L Y S I S
 ***************************** Kiya KiyaLu (100703) ****************************
  (c) Copyright 1996-2015 Board of Regents of the University of Wisconsin System
      on behalf of the Theoretical Chemistry Institute.  All rights reserved.

          Cite this program as:

          NBO 6.0.  E. D. Glendening, J. K. Badenhoop, A. E. Reed,
          J. E. Carpenter, J. A. Bohmann, C. M. Morales, C. R. Landis,
          and F. Weinhold (Theoretical Chemistry Institute, University
          of Wisconsin, Madison, WI, 2013); http://nbo6.chem.wisc.edu/

       /NPA    / : Natural Population Analysis
       /NBO    / : Natural Bond Orbital Analysis
       /AONBO  / : Write the AO to NBO transformation to lfn77
       /FILE   / : Set to 5461

 Filename set to 5461

 Job title:  *** NBO job generated by orca_scf

 Warning: MOs are non-orthogonal; program will continue

 Warning: -2772.47531 electrons reside outside the linearly independent MO space


 NATURAL POPULATIONS:  Natural atomic orbital occupancies

  NAO Atom No lang   Type(AO)    Occupancy      Energy
 -------------------------------------------------------
   1    C  1  s      Cor( 1s)     1.99917      -9.77887
   2    C  1  s      Val( 2s)     1.09532      -0.22650
   3    C  1  s      Ryd( 3s)     0.00055       0.81593
   4    C  1  px     Val( 2p)     1.22535      -0.07811
   5    C  1  px     Ryd( 3p)     0.00151       0.58641
   6    C  1  py     Val( 2p)     1.11344      -0.08053
   7    C  1  py     Ryd( 3p)     0.00173       0.48983
   8    C  1  pz     Val( 2p)     1.23774      -0.07798
   9    C  1  pz     Ryd( 3p)     0.00239       0.58728
  10    C  1  dxy    Ryd( 3d)     0.00037       2.10367
  11    C  1  dxz    Ryd( 3d)     0.00030       2.15924
  12    C  1  dyz    Ryd( 3d)     0.00047       2.17893
  13    C  1  dx2y2  Ryd( 3d)     0.00062       2.29443
  14    C  1  dz2    Ryd( 3d)     0.00054       2.25817

  15    C  2  s      Cor( 1s)     1.99889      -9.83441
  16    C  2  s      Val( 2s)     0.91749      -0.18210
  17    C  2  s      Ryd( 3s)     0.00157       0.79208
  18    C  2  px     Val( 2p)     1.14887      -0.07917
  19    C  2  px     Ryd( 3p)     0.00419       0.73791
  20    C  2  py     Val( 2p)     1.03234      -0.08247
  21    C  2  py     Ryd( 3p)     0.00364       0.60837
  22    C  2  pz     Val( 2p)     0.78856      -0.07221
  23    C  2  pz     Ryd( 3p)     0.00689       0.58509
  24    C  2  dxy    Ryd( 3d)     0.00065       2.04454
  25    C  2  dxz    Ryd( 3d)     0.00121       2.03887
  26    C  2  dyz    Ryd( 3d)     0.00166       2.09965
  27    C  2  dx2y2  Ryd( 3d)     0.00104       2.35728
  28    C  2  dz2    Ryd( 3d)     0.00195       2.22154

  29    O  3  s      Cor( 1s)     1.99975     -18.57425
  30    O  3  s      Val( 2s)     1.66520      -0.79329
  31    O  3  s      Ryd( 3s)     0.00103       1.37740
  32    O  3  px     Val( 2p)     1.59070      -0.25127
  33    O  3  px     Ryd( 3p)     0.00244       1.17607
  34    O  3  py     Val( 2p)     1.86552      -0.25086
  35    O  3  py     Ryd( 3p)     0.00205       1.06946
  36    O  3  pz     Val( 2p)     1.60229      -0.27019
  37    O  3  pz     Ryd( 3p)     0.00181       1.03966
  38    O  3  dxy    Ryd( 3d)     0.00104       2.89777
  39    O  3  dxz    Ryd( 3d)     0.00085       2.80839
  40    O  3  dyz    Ryd( 3d)     0.00092       2.73388
  41    O  3  dx2y2  Ryd( 3d)     0.00104       2.82166
  42    O  3  dz2    Ryd( 3d)     0.00123       2.95316

  43    C  4  s      Cor( 1s)     1.99889      -9.79245
  44    C  4  s      Val( 2s)     0.91779      -0.15747
  45    C  4  s      Ryd( 3s)     0.00341       0.72916
  46    C  4  px     Val( 2p)     1.08814      -0.07762
  47    C  4  px     Ryd( 3p)     0.00231       0.61639
  48    C  4  py     Val( 2p)     0.89938      -0.06548
  49    C  4  py     Ryd( 3p)     0.00610       0.62179
  50    C  4  pz     Val( 2p)     1.16907      -0.06781
  51    C  4  pz     Ryd( 3p)     0.00480       0.83149
  52    C  4  dxy    Ryd( 3d)     0.00158       2.03676
  53    C  4  dxz    Ryd( 3d)     0.00053       2.12618
  54    C  4  dyz    Ryd( 3d)     0.00141       2.11016
  55    C  4  dx2y2  Ryd( 3d)     0.00154       2.18975
  56    C  4  dz2    Ryd( 3d)     0.00111       2.28651

  57    N  5  s      Cor( 1s)     1.99944     -13.81186
  58    N  5  s      Val( 2s)     1.44306      -0.48818
  59    N  5  s      Ryd( 3s)     0.00110       1.21285
  60    N  5  px     Val( 2p)     1.29455      -0.15364
  61    N  5  px     Ryd( 3p)     0.00178       0.89026
  62    N  5  py     Val( 2p)     1.40360      -0.17970
  63    N  5  py     Ryd( 3p)     0.00508       0.82738
  64    N  5  pz     Val( 2p)     1.50138      -0.14753
  65    N  5  pz     Ryd( 3p)     0.00387       0.98126
  66    N  5  dxy    Ryd( 3d)     0.00192       2.46457
  67    N  5  dxz    Ryd( 3d)     0.00052       2.36973
  68    N  5  dyz    Ryd( 3d)     0.00172       2.39061
  69    N  5  dx2y2  Ryd( 3d)     0.00192       2.47922
  70    N  5  dz2    Ryd( 3d)     0.00190       2.80128

  71    C  6  s      Cor( 1s)     1.99896      -9.79993
  72    C  6  s      Val( 2s)     0.91488      -0.16171
  73    C  6  s      Ryd( 3s)     0.00352       0.70310
  74    C  6  px     Val( 2p)     0.96446      -0.05913
  75    C  6  px     Ryd( 3p)     0.00441       0.59405
  76    C  6  py     Val( 2p)     1.02096      -0.08083
  77    C  6  py     Ryd( 3p)     0.00234       0.55804
  78    C  6  pz     Val( 2p)     1.15192      -0.06653
  79    C  6  pz     Ryd( 3p)     0.00446       0.78602
  80    C  6  dxy    Ryd( 3d)     0.00161       2.19964
  81    C  6  dxz    Ryd( 3d)     0.00131       2.31974
  82    C  6  dyz    Ryd( 3d)     0.00064       1.97155
  83    C  6  dx2y2  Ryd( 3d)     0.00161       2.02320
  84    C  6  dz2    Ryd( 3d)     0.00117       2.22238

  85    C  7  s      Cor( 1s)     1.99917      -9.76623
  86    C  7  s      Val( 2s)     1.08788      -0.20732
  87    C  7  s      Ryd( 3s)     0.00057       0.81718
  88    C  7  px     Val( 2p)     1.19391      -0.06131
  89    C  7  px     Ryd( 3p)     0.00255       0.54192
  90    C  7  py     Val( 2p)     1.22432      -0.06050
  91    C  7  py     Ryd( 3p)     0.00307       0.59507
  92    C  7  pz     Val( 2p)     1.14610      -0.06137
  93    C  7  pz     Ryd( 3p)     0.00123       0.50192
  94    C  7  dxy    Ryd( 3d)     0.00077       2.37492
  95    C  7  dxz    Ryd( 3d)     0.00058       2.32622
  96    C  7  dyz    Ryd( 3d)     0.00027       2.07064
  97    C  7  dx2y2  Ryd( 3d)     0.00015       2.08156
  98    C  7  dz2    Ryd( 3d)     0.00054       2.22490

  99    H  8  s      Val( 1s)     0.76470       0.06622
 100    H  8  s      Ryd( 2s)     0.00280       0.32431
 101    H  8  px     Ryd( 2p)     0.00026       1.83568
 102    H  8  py     Ryd( 2p)     0.00033       1.92066
 103    H  8  pz     Ryd( 2p)     0.00045       2.00036

 104    H  9  s      Val( 1s)     0.78158       0.04859
 105    H  9  s      Ryd( 2s)     0.00274       0.35028
 106    H  9  px     Ryd( 2p)     0.00084       2.26501
 107    H  9  py     Ryd( 2p)     0.00015       1.70150
 108    H  9  pz     Ryd( 2p)     0.00017       1.71433

 109    H 10  s      Val( 1s)     0.76342       0.05815
 110    H 10  s      Ryd( 2s)     0.00175       0.33492
 111    H 10  px     Ryd( 2p)     0.00024       1.79116
 112    H 10  py     Ryd( 2p)     0.00019       1.72696
 113    H 10  pz     Ryd( 2p)     0.00069       2.19661

 114    H 11  s      Val( 1s)     0.77571       0.07387
 115    H 11  s      Ryd( 2s)     0.00407       0.32009
 116    H 11  px     Ryd( 2p)     0.00114       2.22662
 117    H 11  py     Ryd( 2p)     0.00012       1.80797
 118    H 11  pz     Ryd( 2p)     0.00009       1.71352

 119    H 12  s      Val( 1s)     0.53970       0.07203
 120    H 12  s      Ryd( 2s)     0.00169       0.43036
 121    H 12  px     Ryd( 2p)     0.00176       2.31462
 122    H 12  py     Ryd( 2p)     0.00142       1.80254
 123    H 12  pz     Ryd( 2p)     0.00111       1.79162

 124    H 13  s      Val( 1s)     0.77340       0.08158
 125    H 13  s      Ryd( 2s)     0.00260       0.34041
 126    H 13  px     Ryd( 2p)     0.00019       1.82733
 127    H 13  py     Ryd( 2p)     0.00008       1.86202
 128    H 13  pz     Ryd( 2p)     0.00090       2.22891

 129    H 14  s      Val( 1s)     0.63049       0.09404
 130    H 14  s      Ryd( 2s)     0.00390       0.43292
 131    H 14  px     Ryd( 2p)     0.00055       1.74706
 132    H 14  py     Ryd( 2p)     0.00073       1.77770
 133    H 14  pz     Ryd( 2p)     0.00148       2.35733

 134    H 15  s      Val( 1s)     0.79358       0.06859
 135    H 15  s      Ryd( 2s)     0.00564       0.34121
 136    H 15  px     Ryd( 2p)     0.00027       2.01330
 137    H 15  py     Ryd( 2p)     0.00022       1.68245
 138    H 15  pz     Ryd( 2p)     0.00072       2.15848

 139    H 16  s      Val( 1s)     0.76781       0.07438
 140    H 16  s      Ryd( 2s)     0.00213       0.35481
 141    H 16  px     Ryd( 2p)     0.00033       1.90923
 142    H 16  py     Ryd( 2p)     0.00020       1.74863
 143    H 16  pz     Ryd( 2p)     0.00053       2.09235

 144    H 17  s      Val( 1s)     0.77535       0.06575
 145    H 17  s      Ryd( 2s)     0.00180       0.33591
 146    H 17  px     Ryd( 2p)     0.00034       1.94265
 147    H 17  py     Ryd( 2p)     0.00055       2.09648
 148    H 17  pz     Ryd( 2p)     0.00019       1.72831

 149    H 18  s      Val( 1s)     0.77013       0.07270
 150    H 18  s      Ryd( 2s)     0.00209       0.33882
 151    H 18  px     Ryd( 2p)     0.00037       1.97989
 152    H 18  py     Ryd( 2p)     0.00056       2.09344
 153    H 18  pz     Ryd( 2p)     0.00015       1.69949

   1 low occupancy (<1.9990e) core orbital  found on  C  2
   1 low occupancy (<1.9990e) core orbital  found on  C  4
   1 low occupancy (<1.9990e) core orbital  found on  C  6


 Summary of Natural Population Analysis:

                                     Natural Population
             Natural    ---------------------------------------------
  Atom No    Charge        Core      Valence    Rydberg      Total
 --------------------------------------------------------------------
    C  1   -0.67950      1.99917     4.67186    0.00848     6.67950
    C  2    0.09105      1.99889     3.88727    0.02280     5.90895
    O  3   -0.73588      1.99975     6.72371    0.01242     8.73588
    C  4   -0.09605      1.99889     4.07438    0.02278     6.09605
    N  5   -0.66183      1.99944     5.64259    0.01981     7.66183
    C  6   -0.07224      1.99896     4.05222    0.02106     6.07224
    C  7   -0.66111      1.99917     4.65221    0.00973     6.66111
    H  8    0.23146      0.00000     0.76470    0.00384     0.76854
    H  9    0.21453      0.00000     0.78158    0.00390     0.78547
    H 10    0.23370      0.00000     0.76342    0.00288     0.76630
    H 11    0.21886      0.00000     0.77571    0.00543     0.78114
    H 12    0.45432      0.00000     0.53970    0.00598     0.54568
    H 13    0.22283      0.00000     0.77340    0.00376     0.77717
    H 14    0.36285      0.00000     0.63049    0.00666     0.63715
    H 15    0.19958      0.00000     0.79358    0.00685     0.80042
    H 16    0.22899      0.00000     0.76781    0.00319     0.77101
    H 17    0.22177      0.00000     0.77535    0.00289     0.77823
    H 18    0.22670      0.00000     0.77013    0.00316     0.77330
 ====================================================================
 * Total *  0.00000     13.99426    41.84013    0.16561    56.00000

                                 Natural Population
 ---------------------------------------------------------
   Core                      13.99426 ( 99.9590% of   14)
   Valence                   41.84013 ( 99.6193% of   42)
   Natural Minimal Basis     55.83439 ( 99.7043% of   56)
   Natural Rydberg Basis      0.16561 (  0.2957% of   56)
 ---------------------------------------------------------

    Atom No         Natural Electron Configuration
 ----------------------------------------------------------------------------
      C  1      [core]2s( 1.10)2p( 3.58)3p( 0.01)
      C  2      [core]2s( 0.92)2p( 2.97)3p( 0.01)3d( 0.01)
      O  3      [core]2s( 1.67)2p( 5.06)3p( 0.01)3d( 0.01)
      C  4      [core]2s( 0.92)2p( 3.16)3p( 0.01)3d( 0.01)
      N  5      [core]2s( 1.44)2p( 4.20)3p( 0.01)3d( 0.01)
      C  6      [core]2s( 0.91)2p( 3.14)3p( 0.01)3d( 0.01)
      C  7      [core]2s( 1.09)2p( 3.56)3p( 0.01)
      H  8            1s( 0.76)
      H  9            1s( 0.78)
      H 10            1s( 0.76)
      H 11            1s( 0.78)
      H 12            1s( 0.54)
      H 13            1s( 0.77)
      H 14            1s( 0.63)
      H 15            1s( 0.79)2s( 0.01)
      H 16            1s( 0.77)
      H 17            1s( 0.78)
      H 18            1s( 0.77)


 NATURAL BOND ORBITAL ANALYSIS:

                            Occupancies       Lewis Structure    Low   High
         Max    Occ     -------------------  -----------------   occ   occ
  Cycle  Ctr   Thresh    Lewis   non-Lewis     CR  BD  nC  LP    (L)   (NL)
 ============================================================================
    1     2     1.90    55.45193   0.54807      7  18   0   3     0      0
    2     2     1.50    55.45193   0.54807      7  18   0   3     0      0
    3     2     1.90    55.45193   0.54807      7  18   0   3     0      0
 ----------------------------------------------------------------------------

 Structure accepted: No low occupancy Lewis orbitals

 -------------------------------------------------------
   Core                     13.99426 ( 99.959% of  14)
   Valence Lewis            41.45766 ( 98.709% of  42)
  ==================      =============================
   Total Lewis              55.45193 ( 99.021% of  56)
  -----------------------------------------------------
   Valence non-Lewis         0.43476 (  0.776% of  56)
   Rydberg non-Lewis         0.11331 (  0.202% of  56)
  ==================      =============================
   Total non-Lewis           0.54807 (  0.979% of  56)
 -------------------------------------------------------


     (Occupancy)   Bond orbital / Coefficients / Hybrids
 ------------------ Lewis ------------------------------------------------------
   1. (1.99917) CR ( 1) C  1            s(100.00%)
                                         1.0000  0.0000  0.0000  0.0000  0.0000
                                         0.0000  0.0000  0.0000  0.0000  0.0000
                                         0.0000  0.0000  0.0000  0.0000
   2. (1.99889) CR ( 1) C  2            s(100.00%)
                                         1.0000  0.0000  0.0000  0.0000  0.0000
                                         0.0000  0.0000  0.0000  0.0000  0.0000
                                         0.0000  0.0000  0.0000  0.0000
   3. (1.99975) CR ( 1) O  3            s(100.00%)
                                         1.0000  0.0000  0.0000  0.0000  0.0000
                                         0.0000  0.0000  0.0000  0.0000  0.0000
                                         0.0000  0.0000  0.0000  0.0000
   4. (1.99889) CR ( 1) C  4            s(100.00%)
                                         1.0000  0.0000  0.0000  0.0000  0.0000
                                         0.0000  0.0000  0.0000  0.0000  0.0000
                                         0.0000  0.0000  0.0000  0.0000
   5. (1.99944) CR ( 1) N  5            s(100.00%)
                                         1.0000  0.0000  0.0000  0.0000  0.0000
                                         0.0000  0.0000  0.0000  0.0000  0.0000
                                         0.0000  0.0000  0.0000  0.0000
   6. (1.99896) CR ( 1) C  6            s(100.00%)
                                         1.0000  0.0000  0.0000  0.0000  0.0000
                                         0.0000  0.0000  0.0000  0.0000  0.0000
                                         0.0000  0.0000  0.0000  0.0000
   7. (1.99917) CR ( 1) C  7            s(100.00%)
                                         1.0000  0.0000  0.0000  0.0000  0.0000
                                         0.0000  0.0000  0.0000  0.0000  0.0000
                                         0.0000  0.0000  0.0000  0.0000
   8. (1.97569) LP ( 1) O  3            s( 45.97%)p 1.17( 53.99%)d 0.00(  0.04%)
                                         0.0000  0.6779 -0.0088 -0.3561  0.0052
                                        -0.3568  0.0042 -0.5346  0.0056 -0.0064
                                        -0.0154 -0.0114  0.0023 -0.0036
   9. (1.93888) LP ( 2) O  3            s(  0.10%)p99.99( 99.84%)d 0.59(  0.06%)
                                         0.0000  0.0316 -0.0031  0.4015 -0.0073
                                        -0.8494  0.0166  0.3396 -0.0069 -0.0061
                                         0.0109 -0.0088  0.0169  0.0090
  10. (1.94431) LP ( 1) N  5            s( 35.62%)p 1.80( 64.28%)d 0.00(  0.10%)
                                         0.0000  0.5968 -0.0093 -0.1940 -0.0023
                                        -0.5908 -0.0214  0.5049  0.0256 -0.0091
                                         0.0094  0.0256  0.0134  0.0000
  11. (1.98295) BD ( 1) C  1- C  2
               ( 50.16%)   0.7082* C  1 s( 30.17%)p 2.31( 69.79%)d 0.00(  0.04%)
                                         0.0000  0.5493 -0.0004 -0.1595 -0.0068
                                        -0.8037  0.0050 -0.1620 -0.0127  0.0056
                                         0.0009  0.0065 -0.0147 -0.0083
               ( 49.84%)   0.7060* C  2 s( 29.04%)p 2.44( 70.92%)d 0.00(  0.04%)
                                         0.0000  0.5389 -0.0009  0.1669 -0.0173
                                         0.8137  0.0082  0.1374 -0.0095  0.0077
                                         0.0018  0.0054 -0.0147 -0.0090
  12. (1.98570) BD ( 1) C  1- H  8
               ( 61.69%)   0.7855* C  1 s( 23.42%)p 3.27( 76.54%)d 0.00(  0.04%)
                                         0.0000  0.4840  0.0035 -0.3730  0.0048
                                         0.5240  0.0076 -0.5929  0.0095 -0.0086
                                         0.0103 -0.0127 -0.0023  0.0048
               ( 38.31%)   0.6189* H  8 s( 99.91%)p 0.00(  0.09%)
                                         0.9995 -0.0021  0.0131 -0.0180  0.0207
  13. (1.98541) BD ( 1) C  1- H  9
               ( 60.93%)   0.7806* C  1 s( 22.96%)p 3.35( 77.00%)d 0.00(  0.04%)
                                         0.0000  0.4792 -0.0039  0.8628 -0.0019
                                         0.1585  0.0199 -0.0115  0.0058  0.0038
                                        -0.0005  0.0007  0.0159 -0.0097
               ( 39.07%)   0.6251* H  9 s( 99.90%)p 0.00(  0.10%)
                                         0.9995 -0.0028 -0.0313 -0.0076 -0.0013
  14. (1.98079) BD ( 1) C  1- H 10
               ( 61.68%)   0.7854* C  1 s( 23.39%)p 3.27( 76.57%)d 0.00(  0.04%)
                                         0.0000  0.4836  0.0017 -0.3008  0.0023
                                         0.2313  0.0153  0.7884 -0.0029 -0.0018
                                        -0.0108  0.0058  0.0012  0.0145
               ( 38.32%)   0.6190* H 10 s( 99.90%)p 0.00(  0.10%)
                                         0.9995 -0.0016  0.0105 -0.0100 -0.0279
  15. (1.99116) BD ( 1) C  2- O  3
               ( 32.31%)   0.5684* C  2 s( 19.44%)p 4.13( 80.36%)d 0.01(  0.21%)
                                         0.0000  0.4402  0.0238  0.3040 -0.0137
                                        -0.2167 -0.0114 -0.8137 -0.0414 -0.0062
                                        -0.0257  0.0167  0.0020  0.0330
               ( 67.69%)   0.8228* O  3 s( 33.66%)p 1.97( 66.26%)d 0.00(  0.08%)
                                         0.0000  0.5802  0.0032 -0.2343 -0.0098
                                         0.2109 -0.0022  0.7504 -0.0006  0.0027
                                        -0.0035  0.0172 -0.0006  0.0210
  16. (1.97749) BD ( 1) C  2- C  4
               ( 49.62%)   0.7044* C  2 s( 29.23%)p 2.42( 70.73%)d 0.00(  0.04%)
                                         0.0000  0.5406 -0.0021  0.3442 -0.0204
                                        -0.5236 -0.0060  0.5606 -0.0015 -0.0080
                                         0.0104 -0.0135 -0.0037  0.0035
               ( 50.38%)   0.7098* C  4 s( 32.12%)p 2.11( 67.84%)d 0.00(  0.04%)
                                         0.0000  0.5668 -0.0019 -0.3100 -0.0177
                                         0.4857 -0.0017 -0.5879  0.0225 -0.0070
                                         0.0067 -0.0129 -0.0022  0.0094
  17. (1.96014) BD ( 1) C  2- H 11
               ( 61.40%)   0.7836* C  2 s( 22.21%)p 3.50( 77.76%)d 0.00(  0.04%)
                                         0.0000  0.4712 -0.0079 -0.8715  0.0166
                                        -0.1269 -0.0001 -0.0370 -0.0180  0.0049
                                         0.0015  0.0000  0.0147 -0.0111
               ( 38.60%)   0.6213* H 11 s( 99.86%)p 0.00(  0.14%)
                                         0.9993 -0.0082  0.0364  0.0052  0.0008
  18. (1.98936) BD ( 1) O  3- H 12
               ( 73.21%)   0.8556* O  3 s( 20.25%)p 3.93( 79.63%)d 0.01(  0.12%)
                                         0.0000  0.4497  0.0164  0.8089  0.0325
                                         0.3249  0.0044 -0.1858 -0.0282  0.0243
                                         0.0034  0.0028  0.0169 -0.0162
               ( 26.79%)   0.5176* H 12 s( 99.67%)p 0.00(  0.33%)
                                         0.9984 -0.0055 -0.0502 -0.0210  0.0173
  19. (1.96192) BD ( 1) C  4- N  5
               ( 41.10%)   0.6411* C  4 s( 17.67%)p 4.65( 82.18%)d 0.01(  0.15%)
                                         0.0000  0.4202  0.0137 -0.2192 -0.0184
                                        -0.8586 -0.0203 -0.1878  0.0224 -0.0051
                                        -0.0001  0.0157 -0.0297 -0.0173
               ( 58.90%)   0.7675* N  5 s( 21.74%)p 3.59( 78.12%)d 0.01(  0.14%)
                                         0.0000  0.4662  0.0023 -0.4324  0.0252
                                         0.7524  0.0105  0.1650 -0.0112 -0.0065
                                         0.0091  0.0013 -0.0314 -0.0164
  20. (1.95335) BD ( 1) C  4- C  6
               ( 50.04%)   0.7074* C  4 s( 23.64%)p 3.23( 76.29%)d 0.00(  0.07%)
                                         0.0000  0.4862  0.0016  0.8729 -0.0070
                                         0.0113  0.0085  0.0186  0.0175 -0.0148
                                        -0.0041 -0.0005  0.0150 -0.0138
               ( 49.96%)   0.7068* C  6 s( 23.34%)p 3.28( 76.59%)d 0.00(  0.07%)
                                         0.0000  0.4831 -0.0008 -0.5931  0.0121
                                         0.6264 -0.0032  0.1473 -0.0010 -0.0160
                                        -0.0047  0.0013  0.0146 -0.0132
  21. (1.97431) BD ( 1) C  4- H 13
               ( 61.78%)   0.7860* C  4 s( 26.42%)p 2.78( 73.55%)d 0.00(  0.03%)
                                         0.0000  0.5140 -0.0050 -0.3047 -0.0037
                                         0.1572 -0.0115  0.7860 -0.0092 -0.0025
                                        -0.0073  0.0019  0.0018  0.0146
               ( 38.22%)   0.6182* H 13 s( 99.89%)p 0.00(  0.11%)
                                         0.9994 -0.0064  0.0113 -0.0046 -0.0316
  22. (1.96014) BD ( 1) N  5- C  6
               ( 59.11%)   0.7688* N  5 s( 20.97%)p 3.76( 78.89%)d 0.01(  0.14%)
                                         0.0000  0.4580  0.0023  0.8630 -0.0127
                                         0.2054  0.0268  0.0324 -0.0040  0.0330
                                        -0.0079  0.0035  0.0062 -0.0136
               ( 40.89%)   0.6395* C  6 s( 17.38%)p 4.75( 82.47%)d 0.01(  0.15%)
                                         0.0000  0.4168  0.0100 -0.4900 -0.0004
                                        -0.7445 -0.0197 -0.1733 -0.0019  0.0308
                                         0.0077  0.0065  0.0087 -0.0190
  23. (1.97916) BD ( 1) N  5- H 14
               ( 68.80%)   0.8295* N  5 s( 21.59%)p 3.63( 78.29%)d 0.01(  0.12%)
                                         0.0000  0.4646  0.0115 -0.1676  0.0130
                                        -0.1990  0.0346 -0.8448  0.0133 -0.0029
                                         0.0008 -0.0112  0.0007  0.0321
               ( 31.20%)   0.5586* H 14 s( 99.78%)p 0.00(  0.22%)
                                         0.9989 -0.0100  0.0096  0.0110  0.0444
  24. (1.98574) BD ( 1) C  6- C  7
               ( 50.57%)   0.7111* C  6 s( 32.34%)p 2.09( 67.63%)d 0.00(  0.03%)
                                         0.0000  0.5685  0.0132  0.4725  0.0226
                                        -0.1458  0.0037  0.6564 -0.0194 -0.0034
                                         0.0109 -0.0059  0.0049  0.0113
               ( 49.43%)   0.7031* C  7 s( 30.67%)p 2.26( 69.30%)d 0.00(  0.04%)
                                         0.0000  0.5537  0.0072 -0.4710  0.0018
                                         0.1511 -0.0047 -0.6695 -0.0058 -0.0033
                                         0.0146 -0.0049  0.0045  0.0092
  25. (1.98026) BD ( 1) C  6- H 15
               ( 60.92%)   0.7805* C  6 s( 26.90%)p 2.72( 73.07%)d 0.00(  0.03%)
                                         0.0000  0.5184 -0.0182  0.4286  0.0123
                                         0.1749 -0.0091 -0.7183  0.0145  0.0015
                                        -0.0101 -0.0064  0.0019  0.0129
               ( 39.08%)   0.6252* H 15 s( 99.90%)p 0.00(  0.10%)
                                         0.9994 -0.0096 -0.0160 -0.0062  0.0273
  26. (1.98562) BD ( 1) C  7- H 16
               ( 61.54%)   0.7844* C  7 s( 23.34%)p 3.28( 76.63%)d 0.00(  0.03%)
                                         0.0000  0.4831 -0.0022 -0.4889  0.0135
                                        -0.1933 -0.0040  0.6998  0.0052  0.0042
                                        -0.0150 -0.0049  0.0055  0.0072
               ( 38.46%)   0.6202* H 16 s( 99.91%)p 0.00(  0.09%)
                                         0.9995 -0.0018  0.0163  0.0084 -0.0246
  27. (1.98189) BD ( 1) C  7- H 17
               ( 61.10%)   0.7816* C  7 s( 22.97%)p 3.35( 77.00%)d 0.00(  0.04%)
                                         0.0000  0.4792 -0.0027  0.4934  0.0066
                                         0.6956 -0.0066  0.2060  0.0114  0.0153
                                         0.0034  0.0048 -0.0066 -0.0087
               ( 38.90%)   0.6237* H 17 s( 99.91%)p 0.00(  0.09%)
                                         0.9995 -0.0013 -0.0168 -0.0237 -0.0080
  28. (1.98340) BD ( 1) C  7- H 18
               ( 61.42%)   0.7837* C  7 s( 23.01%)p 3.34( 76.96%)d 0.00(  0.04%)
                                         0.0000  0.4797  0.0006  0.5431  0.0000
                                        -0.6748  0.0037 -0.1380  0.0119 -0.0156
                                        -0.0043  0.0054 -0.0036 -0.0084
               ( 38.58%)   0.6211* H 18 s( 99.91%)p 0.00(  0.09%)
                                         0.9995 -0.0019 -0.0178  0.0240  0.0037
 ---------------- non-Lewis ----------------------------------------------------
  29. (0.02662) BD*( 1) C  1- C  2
               ( 49.84%)   0.7060* C  1 s( 30.17%)p 2.31( 69.79%)d 0.00(  0.04%)
                                         0.0000  0.5493 -0.0004 -0.1595 -0.0068
                                        -0.8037  0.0050 -0.1620 -0.0127  0.0056
                                         0.0009  0.0065 -0.0147 -0.0083
               ( 50.16%)  -0.7082* C  2 s( 29.04%)p 2.44( 70.92%)d 0.00(  0.04%)
                                         0.0000  0.5389 -0.0009  0.1669 -0.0173
                                         0.8137  0.0082  0.1374 -0.0095  0.0077
                                         0.0018  0.0054 -0.0147 -0.0090
  30. (0.00775) BD*( 1) C  1- H  8
               ( 38.31%)   0.6189* C  1 s( 23.42%)p 3.27( 76.54%)d 0.00(  0.04%)
                                         0.0000 -0.4840 -0.0035  0.3730 -0.0048
                                        -0.5240 -0.0076  0.5929 -0.0095  0.0086
                                        -0.0103  0.0127  0.0023 -0.0048
               ( 61.69%)  -0.7855* H  8 s( 99.91%)p 0.00(  0.09%)
                                        -0.9995  0.0021 -0.0131  0.0180 -0.0207
  31. (0.01091) BD*( 1) C  1- H  9
               ( 39.07%)   0.6251* C  1 s( 22.96%)p 3.35( 77.00%)d 0.00(  0.04%)
                                         0.0000 -0.4792  0.0039 -0.8628  0.0019
                                        -0.1585 -0.0199  0.0115 -0.0058 -0.0038
                                         0.0005 -0.0007 -0.0159  0.0097
               ( 60.93%)  -0.7806* H  9 s( 99.90%)p 0.00(  0.10%)
                                        -0.9995  0.0028  0.0313  0.0076  0.0013
  32. (0.00830) BD*( 1) C  1- H 10
               ( 38.32%)   0.6190* C  1 s( 23.39%)p 3.27( 76.57%)d 0.00(  0.04%)
                                         0.0000 -0.4836 -0.0017  0.3008 -0.0023
                                        -0.2313 -0.0153 -0.7884  0.0029  0.0018
                                         0.0108 -0.0058 -0.0012 -0.0145
               ( 61.68%)  -0.7854* H 10 s( 99.90%)p 0.00(  0.10%)
                                        -0.9995  0.0016 -0.0105  0.0100  0.0279
  33. (0.03357) BD*( 1) C  2- O  3
               ( 67.69%)   0.8228* C  2 s( 19.44%)p 4.13( 80.36%)d 0.01(  0.21%)
                                         0.0000  0.4402  0.0238  0.3040 -0.0137
                                        -0.2167 -0.0114 -0.8137 -0.0414 -0.0062
                                        -0.0257  0.0167  0.0020  0.0330
               ( 32.31%)  -0.5684* O  3 s( 33.66%)p 1.97( 66.26%)d 0.00(  0.08%)
                                         0.0000  0.5802  0.0032 -0.2343 -0.0098
                                         0.2109 -0.0022  0.7504 -0.0006  0.0027
                                        -0.0035  0.0172 -0.0006  0.0210
  34. (0.05410) BD*( 1) C  2- C  4
               ( 50.38%)   0.7098* C  2 s( 29.23%)p 2.42( 70.73%)d 0.00(  0.04%)
                                         0.0000 -0.5406  0.0021 -0.3442  0.0204
                                         0.5236  0.0060 -0.5606  0.0015  0.0080
                                        -0.0104  0.0135  0.0037 -0.0035
               ( 49.62%)  -0.7044* C  4 s( 32.12%)p 2.11( 67.84%)d 0.00(  0.04%)
                                         0.0000 -0.5668  0.0019  0.3100  0.0177
                                        -0.4857  0.0017  0.5879 -0.0225  0.0070
                                        -0.0067  0.0129  0.0022 -0.0094
  35. (0.03283) BD*( 1) C  2- H 11
               ( 38.60%)   0.6213* C  2 s( 22.21%)p 3.50( 77.76%)d 0.00(  0.04%)
                                         0.0000 -0.4712  0.0079  0.8715 -0.0166
                                         0.1269  0.0001  0.0370  0.0180 -0.0049
                                        -0.0015  0.0000 -0.0147  0.0111
               ( 61.40%)  -0.7836* H 11 s( 99.86%)p 0.00(  0.14%)
                                        -0.9993  0.0082 -0.0364 -0.0052 -0.0008
  36. (0.01144) BD*( 1) O  3- H 12
               ( 26.79%)   0.5176* O  3 s( 20.25%)p 3.93( 79.63%)d 0.01(  0.12%)
                                         0.0000 -0.4497 -0.0164 -0.8089 -0.0325
                                        -0.3249 -0.0044  0.1858  0.0282 -0.0243
                                        -0.0034 -0.0028 -0.0169  0.0162
               ( 73.21%)  -0.8556* H 12 s( 99.67%)p 0.00(  0.33%)
                                        -0.9984  0.0055  0.0502  0.0210 -0.0173
  37. (0.03282) BD*( 1) C  4- N  5
               ( 58.90%)   0.7675* C  4 s( 17.67%)p 4.65( 82.18%)d 0.01(  0.15%)
                                         0.0000  0.4202  0.0137 -0.2192 -0.0184
                                        -0.8586 -0.0203 -0.1878  0.0224 -0.0051
                                        -0.0001  0.0157 -0.0297 -0.0173
               ( 41.10%)  -0.6411* N  5 s( 21.74%)p 3.59( 78.12%)d 0.01(  0.14%)
                                         0.0000  0.4662  0.0023 -0.4324  0.0252
                                         0.7524  0.0105  0.1650 -0.0112 -0.0065
                                         0.0091  0.0013 -0.0314 -0.0164
  38. (0.04204) BD*( 1) C  4- C  6
               ( 49.96%)   0.7068* C  4 s( 23.64%)p 3.23( 76.29%)d 0.00(  0.07%)
                                         0.0000  0.4862  0.0016  0.8729 -0.0070
                                         0.0113  0.0085  0.0186  0.0175 -0.0148
                                        -0.0041 -0.0005  0.0150 -0.0138
               ( 50.04%)  -0.7074* C  6 s( 23.34%)p 3.28( 76.59%)d 0.00(  0.07%)
                                         0.0000  0.4831 -0.0008 -0.5931  0.0121
                                         0.6264 -0.0032  0.1473 -0.0010 -0.0160
                                        -0.0047  0.0013  0.0146 -0.0132
  39. (0.03195) BD*( 1) C  4- H 13
               ( 38.22%)   0.6182* C  4 s( 26.42%)p 2.78( 73.55%)d 0.00(  0.03%)
                                         0.0000 -0.5140  0.0050  0.3047  0.0037
                                        -0.1572  0.0115 -0.7860  0.0092  0.0025
                                         0.0073 -0.0019 -0.0018 -0.0146
               ( 61.78%)  -0.7860* H 13 s( 99.89%)p 0.00(  0.11%)
                                        -0.9994  0.0064 -0.0113  0.0046  0.0316
  40. (0.03866) BD*( 1) N  5- C  6
               ( 40.89%)   0.6395* N  5 s( 20.97%)p 3.76( 78.89%)d 0.01(  0.14%)
                                         0.0000 -0.4580 -0.0023 -0.8630  0.0127
                                        -0.2054 -0.0268 -0.0324  0.0040 -0.0330
                                         0.0079 -0.0035 -0.0062  0.0136
               ( 59.11%)  -0.7688* C  6 s( 17.38%)p 4.75( 82.47%)d 0.01(  0.15%)
                                         0.0000 -0.4168 -0.0100  0.4900  0.0004
                                         0.7445  0.0197  0.1733  0.0019 -0.0308
                                        -0.0077 -0.0065 -0.0087  0.0190
  41. (0.02071) BD*( 1) N  5- H 14
               ( 31.20%)   0.5586* N  5 s( 21.59%)p 3.63( 78.29%)d 0.01(  0.12%)
                                         0.0000 -0.4646 -0.0115  0.1676 -0.0130
                                         0.1990 -0.0346  0.8448 -0.0133  0.0029
                                        -0.0008  0.0112 -0.0007 -0.0321
               ( 68.80%)  -0.8295* H 14 s( 99.78%)p 0.00(  0.22%)
                                        -0.9989  0.0100 -0.0096 -0.0110 -0.0444
  42. (0.02435) BD*( 1) C  6- C  7
               ( 49.43%)   0.7031* C  6 s( 32.34%)p 2.09( 67.63%)d 0.00(  0.03%)
                                         0.0000  0.5685  0.0132  0.4725  0.0226
                                        -0.1458  0.0037  0.6564 -0.0194 -0.0034
                                         0.0109 -0.0059  0.0049  0.0113
               ( 50.57%)  -0.7111* C  7 s( 30.67%)p 2.26( 69.30%)d 0.00(  0.04%)
                                         0.0000  0.5537  0.0072 -0.4710  0.0018
                                         0.1511 -0.0047 -0.6695 -0.0058 -0.0033
                                         0.0146 -0.0049  0.0045  0.0092
  43. (0.03352) BD*( 1) C  6- H 15
               ( 39.08%)   0.6252* C  6 s( 26.90%)p 2.72( 73.07%)d 0.00(  0.03%)
                                         0.0000 -0.5184  0.0182 -0.4286 -0.0123
                                        -0.1749  0.0091  0.7183 -0.0145 -0.0015
                                         0.0101  0.0064 -0.0019 -0.0129
               ( 60.92%)  -0.7805* H 15 s( 99.90%)p 0.00(  0.10%)
                                        -0.9994  0.0096  0.0160  0.0062 -0.0273
  44. (0.00779) BD*( 1) C  7- H 16
               ( 38.46%)   0.6202* C  7 s( 23.34%)p 3.28( 76.63%)d 0.00(  0.03%)
                                         0.0000 -0.4831  0.0022  0.4889 -0.0135
                                         0.1933  0.0040 -0.6998 -0.0052 -0.0042
                                         0.0150  0.0049 -0.0055 -0.0072
               ( 61.54%)  -0.7844* H 16 s( 99.91%)p 0.00(  0.09%)
                                        -0.9995  0.0018 -0.0163 -0.0084  0.0246
  45. (0.00819) BD*( 1) C  7- H 17
               ( 38.90%)   0.6237* C  7 s( 22.97%)p 3.35( 77.00%)d 0.00(  0.04%)
                                         0.0000 -0.4792  0.0027 -0.4934 -0.0066
                                        -0.6956  0.0066 -0.2060 -0.0114 -0.0153
                                        -0.0034 -0.0048  0.0066  0.0087
               ( 61.10%)  -0.7816* H 17 s( 99.91%)p 0.00(  0.09%)
                                        -0.9995  0.0013  0.0168  0.0237  0.0080
  46. (0.00922) BD*( 1) C  7- H 18
               ( 38.58%)   0.6211* C  7 s( 23.01%)p 3.34( 76.96%)d 0.00(  0.04%)
                                         0.0000 -0.4797 -0.0006 -0.5431  0.0000
                                         0.6748 -0.0037  0.1380 -0.0119  0.0156
                                         0.0043 -0.0054  0.0036  0.0084
               ( 61.42%)  -0.7837* H 18 s( 99.91%)p 0.00(  0.09%)
                                        -0.9995  0.0019  0.0178 -0.0240 -0.0037
  47. (0.00273) RY ( 1) C  1            s(  9.22%)p 8.94( 82.37%)d 0.91(  8.41%)
                                         0.0000  0.0124  0.3034  0.0082  0.4407
                                        -0.0120 -0.4892  0.0100  0.6244 -0.1826
                                        -0.0142 -0.1741 -0.1418 -0.0114
  48. (0.00195) RY ( 2) C  1            s(  1.36%)p69.51( 94.25%)d 3.24(  4.39%)
                                         0.0000  0.0040  0.1164  0.0101  0.6386
                                         0.0063 -0.1762 -0.0032 -0.7095 -0.1821
                                        -0.0207  0.0346 -0.0907  0.0302
  49. (0.00047) RY ( 3) C  1            s( 34.37%)p 1.70( 58.46%)d 0.21(  7.17%)
                                         0.0000  0.0114  0.5861  0.0049 -0.4855
                                         0.0123 -0.5370  0.0004 -0.2455  0.1415
                                         0.0671  0.2023  0.0789  0.0057
  50. (0.00020) RY ( 4) C  1            s( 11.41%)p 0.67(  7.62%)d 7.10( 80.98%)
                                         0.0000 -0.0048  0.3377 -0.0092  0.1389
                                        -0.0001  0.2274  0.0092 -0.0708  0.5052
                                         0.1285 -0.5531  0.1109 -0.4689
  51. (0.00016) RY ( 5) C  1            s( 31.74%)p 1.17( 37.25%)d 0.98( 31.01%)
                                         0.0000 -0.0124  0.5633 -0.0033  0.2327
                                        -0.0096  0.5382 -0.0106  0.1686  0.0270
                                         0.0087  0.4559  0.1968  0.2505
  52. (0.00004) RY ( 6) C  1            s(  7.87%)p 1.62( 12.73%)d10.09( 79.40%)
  53. (0.00002) RY ( 7) C  1            s(  0.36%)p 1.49(  0.54%)d99.99( 99.09%)
  54. (0.00001) RY ( 8) C  1            s(  3.46%)p 1.92(  6.63%)d26.02( 89.91%)
  55. (0.00001) RY ( 9) C  1            s(  0.27%)p 0.89(  0.24%)d99.99( 99.49%)
  56. (0.00665) RY ( 1) C  2            s(  1.55%)p61.99( 96.25%)d 1.42(  2.20%)
                                         0.0000 -0.0305  0.1208 -0.0037 -0.0311
                                         0.0116 -0.5217  0.0343 -0.8294 -0.0236
                                        -0.1181 -0.0796  0.0293 -0.0169
  57. (0.00376) RY ( 2) C  2            s(  1.41%)p58.32( 82.05%)d11.76( 16.54%)
                                         0.0000  0.0208  0.1168  0.0234  0.8100
                                         0.0086 -0.3581 -0.0073  0.1886  0.1439
                                         0.2816 -0.1955  0.1413  0.0851
  58. (0.00323) RY ( 3) C  2            s( 12.13%)p 4.93( 59.82%)d 2.31( 28.05%)
                                         0.0000 -0.0021  0.3483 -0.0304 -0.4558
                                         0.0095 -0.4982  0.0002  0.3758  0.0628
                                         0.0687 -0.2249 -0.2020  0.4248
  59. (0.00137) RY ( 4) C  2            s(  1.56%)p 8.55( 13.37%)d54.41( 85.07%)
                                         0.0000 -0.0006  0.1250  0.0034 -0.0477
                                         0.0042  0.3514 -0.0093 -0.0883  0.1456
                                        -0.1847 -0.8675  0.2065 -0.0160
  60. (0.00117) RY ( 5) C  2            s( 33.37%)p 0.94( 31.29%)d 1.06( 35.33%)
                                         0.0000 -0.0094  0.5776 -0.0133  0.1710
                                         0.0007  0.4582  0.0221 -0.2703 -0.1712
                                         0.2466  0.1244 -0.3106  0.3889
  61. (0.00088) RY ( 6) C  2            s( 15.14%)p 0.25(  3.79%)d 5.36( 81.07%)
                                         0.0000  0.0072  0.3890  0.0011  0.0632
                                        -0.0107 -0.1054 -0.0171  0.1497 -0.2196
                                        -0.0982 -0.1147 -0.4499 -0.7330
  62. (0.00039) RY ( 7) C  2            s(  6.74%)p 0.69(  4.63%)d13.16( 88.63%)
                                         0.0000  0.0033  0.2595 -0.0035  0.1183
                                         0.0158 -0.0594  0.0245  0.1671 -0.6074
                                        -0.5250  0.1058  0.4579  0.1445
  63. (0.00027) RY ( 8) C  2            s(  5.21%)p 0.58(  3.01%)d17.63( 91.78%)
                                         0.0000 -0.0003  0.2282 -0.0006  0.1601
                                        -0.0084  0.0435  0.0259  0.0434  0.6494
                                        -0.6407  0.2489 -0.1355  0.0725
  64. (0.00005) RY ( 9) C  2            s( 22.98%)p 0.26(  6.02%)d 3.09( 71.00%)
  65. (0.00197) RY ( 1) O  3            s(  1.57%)p59.06( 92.56%)d 3.75(  5.87%)
                                         0.0000  0.0018  0.1252  0.0067  0.3768
                                        -0.0127 -0.7942  0.0060  0.3906  0.0668
                                         0.0510 -0.1601  0.0296  0.1586
  66. (0.00086) RY ( 2) O  3            s(  7.02%)p10.06( 70.55%)d 3.20( 22.44%)
                                         0.0000 -0.0017  0.2649 -0.0021 -0.5440
                                        -0.0017 -0.4441 -0.0023 -0.4607  0.0002
                                        -0.3293 -0.1794  0.2587 -0.1297
  67. (0.00045) RY ( 3) O  3            s( 85.98%)p 0.14( 11.98%)d 0.02(  2.04%)
                                         0.0000 -0.0042  0.9272 -0.0121  0.0786
                                        -0.0083  0.2600 -0.0026  0.2141 -0.0167
                                        -0.0456  0.1189  0.0610 -0.0135
  68. (0.00007) RY ( 4) O  3            s(  0.07%)p99.99( 84.02%)d99.99( 15.91%)
  69. (0.00003) RY ( 5) O  3            s(  2.94%)p 3.18(  9.35%)d29.84( 87.71%)
  70. (0.00001) RY ( 6) O  3            s(  0.00%)p 1.00(  6.56%)d14.24( 93.44%)
  71. (0.00001) RY ( 7) O  3            s(  0.72%)p12.86(  9.28%)d99.99( 90.00%)
  72. (0.00000) RY ( 8) O  3            s(  1.07%)p 9.32( 10.01%)d82.75( 88.91%)
  73. (0.00000) RY ( 9) O  3            s(  0.65%)p 9.19(  5.96%)d99.99( 93.39%)
  74. (0.00637) RY ( 1) C  4            s(  3.05%)p27.41( 83.64%)d 4.36( 13.30%)
                                         0.0000 -0.0058  0.1746  0.0108  0.2395
                                         0.0129 -0.8719 -0.0097 -0.1359 -0.3260
                                        -0.0322  0.1395  0.0435  0.0664
  75. (0.00523) RY ( 2) C  4            s( 37.78%)p 1.45( 54.89%)d 0.19(  7.33%)
                                         0.0000 -0.0180  0.6144 -0.0081  0.1806
                                         0.0156  0.0901  0.0232  0.7123 -0.1633
                                         0.1242 -0.0874 -0.0920 -0.1228
  76. (0.00304) RY ( 3) C  4            s( 24.52%)p 2.71( 66.47%)d 0.37(  9.01%)
                                         0.0000  0.0250  0.4945 -0.0014  0.4365
                                        -0.0041  0.3566 -0.0155 -0.5888 -0.1216
                                        -0.1933 -0.0193 -0.1806  0.0709
  77. (0.00135) RY ( 4) C  4            s(  3.03%)p 2.56(  7.76%)d29.40( 89.21%)
                                         0.0000 -0.0046  0.1741 -0.0052 -0.1963
                                         0.0006  0.1774 -0.0064  0.0868 -0.0934
                                        -0.1611  0.7754  0.3612  0.3546
  78. (0.00098) RY ( 5) C  4            s( 11.18%)p 5.65( 63.21%)d 2.29( 25.60%)
                                         0.0000 -0.0178  0.3340 -0.0023 -0.7577
                                         0.0030  0.0001  0.0077 -0.2407 -0.4077
                                         0.0401 -0.2588  0.0754 -0.1246
  79. (0.00050) RY ( 6) C  4            s(  8.20%)p 0.37(  3.03%)d10.83( 88.78%)
                                         0.0000  0.0139  0.2860  0.0016  0.0494
                                        -0.0227 -0.0791 -0.0050 -0.1450  0.4381
                                         0.5081 -0.2471  0.5308  0.3080
  80. (0.00019) RY ( 7) C  4            s(  7.37%)p 0.93(  6.87%)d11.64( 85.76%)
                                         0.0000  0.0042  0.2714  0.0015 -0.1470
                                         0.0299 -0.1521  0.0025 -0.1519  0.5187
                                         0.0669  0.3872 -0.1329 -0.6454
  81. (0.00015) RY ( 8) C  4            s(  2.03%)p 4.59(  9.32%)d43.64( 88.65%)
                                         0.0000 -0.0077  0.1423  0.0285 -0.2684
                                         0.0119 -0.1402  0.0045  0.0223  0.2798
                                         0.1020  0.0524 -0.6945  0.5593
[...]
                   0.00000   0.00637   0.00523   0.00304   0.00135   0.00098
                  --------  --------  --------  --------  --------  --------
  0 C                -0.1      -1.8      -2.8      -5.9       0.5      -0.6
  1 C                -1.0     -17.7      -0.8     -48.9     -10.8     -39.0
  2 O               103.1      -1.2      -0.3       0.6       0.0      -0.2
  3 C                -0.1     182.8     191.2     212.9     118.8     157.0
  4 N                -0.0     -20.9      -2.3      -3.1      -0.9      -5.8
  5 C                -0.0     -34.1     -52.0     -53.3      -0.3      -7.6
  6 C                -0.0       0.3       1.9      -0.4      -0.1       0.1
  7 H                -0.0      -0.2      -0.0      -0.2      -0.1      -0.0
  8 H                -0.0       0.3       0.1      -0.2      -0.0      -0.0
  9 H                -0.0      -0.8       0.3       0.2      -0.1      -0.1
 10 H                -0.1       0.0       0.0      -0.5      -0.1       0.2
 11 H                -1.6      -0.1      -0.1       0.2      -0.0      -0.0
 12 H                -0.0      -4.9     -34.0      -2.9      -6.8      -3.3
 13 H                -0.0      -0.8      -0.1       0.0       0.0       0.1
 14 H                -0.0      -0.1      -0.5       1.4      -0.1      -0.3
 15 H                -0.0      -0.9      -0.6       0.0      -0.0      -0.5
 16 H                -0.0      -0.0       0.2      -0.0      -0.0       0.1

                     78        79        80        81        82        83   
                   0.00000   0.00000   0.00000   0.00000   0.00000   0.00000
                   0.00050   0.00019   0.00015   0.00008   0.00332   0.00215
                  --------  --------  --------  --------  --------  --------
  0 C                 0.2       0.0       0.0       0.0      -0.1      -0.3
  1 C                -9.7     -14.2      -3.6      -2.3      -0.7       0.7
  2 O                -0.0       0.1      -0.0      -0.1      -0.0      -0.1
  3 C               131.4     126.7     108.6     116.9      -2.2      -8.1
  4 N               -10.8      -2.3       0.0      -5.0     112.0     124.5
  5 C                -9.5      -6.7      -1.7      -5.1      -6.7     -12.1
  6 C                -0.6      -0.1      -0.1       0.6       0.0       1.2
 10 H                -0.2       0.1       0.3       0.0      -0.0      -0.1
 12 H                -0.7      -3.4      -3.1      -4.7      -0.0      -0.2
 13 H                -0.1      -0.0      -0.1      -0.0      -1.8      -4.6
 14 H                 0.2      -0.0      -0.1      -0.1      -0.1      -0.3
 15 H                -0.0      -0.0       0.0      -0.2      -0.4      -0.2

                     84        85        86        87        88        89   
                   0.00000   0.00000   0.00000   0.00000   0.00000   0.00000
                   0.00040   0.00033   0.00010   0.00006   0.00003   0.00002
                  --------  --------  --------  --------  --------  --------
  0 C                -0.5       0.0      -0.1      -0.2      -0.0      -0.1
  1 C                 2.4      -1.3      -0.2       0.2       0.0      -0.0
  2 O                -0.0      -0.1      -0.0      -0.1      -0.0      -0.0
  3 C               -24.8      -2.5      -3.8      -3.4      -2.0      -1.9
  4 N               130.3     130.2     105.6     108.7     107.7     106.1
  5 C                -2.5     -15.5      -0.6      -3.3      -3.8      -0.3
  6 C                -0.6      -0.3       0.2       0.2       0.1      -0.1
 12 H                -0.3      -0.1      -0.0      -0.2      -0.0      -0.1
 13 H                -4.0     -10.1      -0.8      -1.6      -1.8      -3.4
 14 H                 0.1      -0.2      -0.2      -0.1      -0.1      -0.0

                     90        91        92        93        94        95   
                   0.00000   0.00000   0.00000   0.00000   0.00000   0.00000
                   0.00001   0.00590   0.00445   0.00328   0.00128   0.00060
                  --------  --------  --------  --------  --------  --------
  0 C                -0.0       0.8       0.0      -0.0       0.3       0.0
  1 C                -0.1      -0.4      -1.2      -0.5       0.6      -0.4
  2 O                -0.0      -0.4      -0.0      -0.2       0.0      -0.1
  3 C                -3.0     -64.9     -34.3     -10.7     -19.4      -2.3
  4 N               108.7      -7.0     -14.7      -4.7      -4.7      -4.5
  5 C                -1.6     197.3     182.8     181.9     133.1     109.9
  6 C                -0.2      -2.0     -17.4     -63.2      -5.0      -1.7
  8 H                -0.0      -0.2      -0.1      -0.1      -0.4       0.0
 10 H                -0.0      -0.1       0.0      -0.0      -0.0      -0.0
 11 H                -0.0      -0.2      -0.0      -0.2      -0.2      -0.1
 12 H                -0.0      -0.6       0.7       0.4      -0.1       0.1
 13 H                -3.7      -1.6      -0.7       0.0      -0.2      -0.1
 14 H                -0.1     -20.3     -16.1      -2.7      -3.2      -0.8
 15 H                 0.0      -0.3       0.9       0.9      -0.1      -0.1
 16 H                 0.0      -0.0       0.3      -0.7      -0.4      -0.1
 17 H                -0.0       0.1      -0.2       0.1      -0.5       0.0

                     96        97        98        99       100       101   
                   0.00000   0.00000   0.00000   0.00000   0.00000   0.00000
                   0.00055   0.00021   0.00011   0.00005   0.00338   0.00293
                  --------  --------  --------  --------  --------  --------
  1 C                 0.2      -0.6      -0.4       0.4      -0.1      -0.0
  3 C                -2.7      -4.5     -13.9     -17.4      -1.5       2.3
  4 N                 0.3      -1.3      -0.7     -10.0      -0.8       0.6
  5 C               122.8     112.9     133.5     157.5      -9.5     -24.8
  6 C               -15.6      -1.3     -16.2     -23.2     135.6     148.4
 12 H                 0.1       0.0       0.2       0.0      -0.4      -0.2
 13 H                -0.5       0.1       0.0      -1.0      -0.0       0.0
 14 H                -4.6      -5.5      -2.7      -6.8      -0.1       0.0
 15 H                 0.0       0.1       0.4       0.5      -2.5     -19.2
 16 H                 0.4      -0.0      -0.0      -0.2     -11.2      -5.8
 17 H                -0.2       0.2      -0.1       0.2      -9.3      -1.5

                    102       103       104       105       106       107   
                   0.00000   0.00000   0.00000   0.00000   0.00000   0.00000
                   0.00077   0.00011   0.00010   0.00002   0.00001   0.00000
                  --------  --------  --------  --------  --------  --------
  1 C                -0.1       0.0       0.0      -0.0       0.0      -0.0
  2 O                -0.1      -0.0       0.0      -0.0      -0.0      -0.0
  3 C                -0.4      -0.4       1.6      -0.2       0.0      -0.1
  4 N                 0.6      -0.3       0.4       0.0      -0.0      -0.1
  5 C               -93.5      -0.8      -8.8      -4.0      -1.8      -1.8
  6 C               204.0     142.8     118.8     117.0     124.0     108.9
 12 H                -0.7       0.0      -0.1       0.0      -0.0      -0.0
 14 H                -0.6       0.0      -0.3      -0.0      -0.0      -0.1
 15 H                 0.5     -15.1      -7.0      -3.4      -7.5      -1.9
 16 H                -3.4     -15.6      -3.8      -2.6      -4.5      -2.4
 17 H                -6.1     -10.6      -1.1      -6.8     -10.1      -2.5

                    108       109       110       111       112       113   
                   0.00000   0.00000   0.00000   0.00000   0.00000   0.00000
                   0.00000   0.00283   0.00014   0.00012   0.00004   0.00277
                  --------  --------  --------  --------  --------  --------
  0 C                -0.0     -35.2      -2.9      -3.1      -7.9     -34.8
  1 C                -0.0       0.3      -0.2      -0.2      -0.2       0.6
  2 O                -0.0      -0.0      -0.2      -0.1      -0.0      -0.0
  3 C                 0.1      -0.5      -0.0      -0.1      -0.0      -0.1
  5 C                -1.5       0.0      -0.0      -0.0      -0.0      -0.8
  6 C               111.5      -0.0      -0.0      -0.0      -0.0      -0.1
  7 H                -0.0     136.6     104.1     104.3     108.4      -0.4
  8 H                -0.0      -0.4      -0.4      -0.3      -0.1     137.3
  9 H                -0.0      -0.3      -0.3      -0.4      -0.1      -0.4
 10 H                -0.0      -0.4      -0.0      -0.0      -0.0      -0.0
 11 H                -0.0      -0.1      -0.0      -0.0      -0.0      -0.9
 14 H                -0.0      -0.0      -0.0      -0.0      -0.0      -0.2
 15 H                -1.1      -0.0      -0.0      -0.0      -0.0      -0.0
 16 H                -3.4      -0.0      -0.0      -0.0      -0.0      -0.1
 17 H                -5.4      -0.0      -0.0      -0.0      -0.0      -0.0

                    114       115       116       117       118       119   
                   0.00000   0.00000   0.00000   0.00000   0.00000   0.00000
                   0.00017   0.00012   0.00003   0.00179   0.00016   0.00014
                  --------  --------  --------  --------  --------  --------
  0 C                -2.9      -2.9      -8.1     -35.1      -3.0      -3.4
  1 C                -0.2      -0.2      -0.1       0.8      -0.1      -0.0
  2 O                -0.1      -0.1      -0.0      -0.0      -0.0      -0.2
  3 C                -0.0      -0.1      -0.0      -0.4      -0.0       0.0
  7 H                -0.3      -0.4      -0.1      -0.2      -0.3      -0.5
  8 H               104.0     104.2     108.5      -0.3      -0.5      -0.4
  9 H                -0.3      -0.4      -0.1     137.4     104.1     104.5
 10 H                -0.1      -0.0      -0.0      -0.3      -0.0      -0.0
 12 H                -0.0      -0.0      -0.0      -1.7       0.0      -0.0

                    120       121       122       123       124       125   
                   0.00000   0.00000   0.00000   0.00000   0.00000   0.00000
                   0.00003   0.00413   0.00011   0.00009   0.00005   0.00190
                  --------  --------  --------  --------  --------  --------
  0 C                -7.8       0.3      -0.6      -0.2       0.1      -1.1
  1 C                -0.1     -35.5      -4.9      -3.5      -6.2      -2.1
  2 O                -0.1       0.3      -0.5      -0.4      -1.3      -5.8
  3 C                -0.0       0.0      -0.3      -0.6      -0.0       0.1
  5 C                 0.0      -0.1      -0.0      -0.0       0.1      -0.4
  7 H                -0.1      -0.4      -0.0      -0.1      -0.0      -0.1
  8 H                -0.1      -0.0      -0.0      -0.0      -0.0      -0.6
  9 H               108.4      -0.2      -0.0      -0.0      -0.1      -0.1
 10 H                -0.0     136.0     106.5     105.0     107.6      -0.0
 11 H                -0.0      -0.0      -0.1      -0.0      -0.1     112.8
 12 H                -0.1      -0.2      -0.0      -0.0      -0.0      -0.0
 14 H                -0.0       0.0      -0.0      -0.0      -0.0      -2.5

                    126       127       128       129       130       131   
                   0.00000   0.00000   0.00000   0.00000   0.00000   0.00000
                   0.00150   0.00088   0.00002   0.00263   0.00012   0.00009
                  --------  --------  --------  --------  --------  --------
  0 C                 0.2       0.0       0.0       0.1      -0.1      -0.0
  1 C                -0.8      -1.7       0.2      -0.2      -0.1      -0.6
  2 O                -3.3      -2.0      -3.8      -0.0      -0.1      -0.0
  3 C                -0.0      -0.0      -0.3     -39.4      -3.0      -7.7
  4 N                -0.0      -0.0       0.0       0.0      -0.6       0.1
  5 C                -0.1      -0.1      -0.0       0.9      -0.2       0.4
  6 C                -0.0      -0.0      -0.0      -1.2      -0.0      -0.0
  8 H                -0.1      -0.2      -0.0      -0.0      -0.0       0.0
  9 H                -0.0      -0.0       0.0      -1.7      -0.0      -0.0
 10 H                -0.0      -0.1      -0.0      -0.3      -0.0       0.0
 11 H               104.8     104.3     104.1      -0.0      -0.0      -0.0
 12 H                -0.0      -0.0      -0.0     143.5     104.3     108.0
 14 H                -0.6      -0.2      -0.1       0.0      -0.0      -0.0
 15 H                -0.0      -0.0      -0.0      -1.6      -0.0      -0.0

                    132       133       134       135       136       137   
                   0.00000   0.00000   0.00000   0.00000   0.00000   0.00000
                   0.00002   0.00409   0.00082   0.00049   0.00003   0.00578
                  --------  --------  --------  --------  --------  --------
  0 C                -0.0      -0.3      -0.0      -0.0      -0.0       0.0
  1 C                 0.1      -1.5      -0.1      -0.0       0.0      -1.0
  2 O                -0.0      -0.8      -0.0      -0.0      -0.1      -0.2
  3 C                -5.0       0.2      -0.3      -0.3      -0.3       1.3
  4 N                -0.9      -8.6      -4.0      -2.9      -5.4      -0.1
  5 C                -0.7      -4.1      -0.2      -0.3      -0.1     -39.2
  6 C                -0.0      -0.0      -0.0      -0.1       0.0      -0.9
  8 H                -0.0       0.0      -0.0      -0.0      -0.0      -0.2
 11 H                -0.0      -0.0      -0.0      -0.0      -0.0      -3.2
 12 H               106.7       0.0      -0.0      -0.1      -0.0       0.0
 13 H                -0.0     115.9     104.7     103.7     105.9      -0.5
 14 H                -0.0      -0.5      -0.1      -0.0      -0.0     144.5
 16 H                -0.0      -0.0      -0.0      -0.0       0.0      -0.2
 17 H                -0.0      -0.0      -0.0      -0.0      -0.0      -0.2

                    138       139       140       141       142       143   
                   0.00000   0.00000   0.00000   0.00000   0.00000   0.00000
                   0.00020   0.00008   0.00003   0.00217   0.00016   0.00012
                  --------  --------  --------  --------  --------  --------
  3 C                -0.3       0.1      -0.8      -2.1      -0.0      -0.0
  4 N                -0.2      -0.2      -0.9      -0.4      -0.1      -0.1
  5 C                -3.1      -6.4      -5.5       3.0      -0.1      -0.4
  6 C                -0.1      -0.5       0.3     -38.6      -3.0      -2.8
 11 H                 0.0      -0.1       0.0      -0.0      -0.0      -0.0
 12 H                -0.0      -0.0      -0.0      -1.6      -0.0      -0.0
 14 H               103.8     107.5     107.2       0.0      -0.1      -0.1
 15 H                -0.1      -0.1      -0.0     140.7     103.9     104.1
 16 H                -0.0      -0.0      -0.0      -0.5      -0.3      -0.4
 17 H                -0.0      -0.0      -0.0      -0.3      -0.3      -0.3

                    144       145       146       147       148       149   
                   0.00000   0.00000   0.00000   0.00000   0.00000   0.00000
                   0.00003   0.00183   0.00018   0.00014   0.00003   0.00214
                  --------  --------  --------  --------  --------  --------
  3 C                -0.1       0.2      -0.0      -0.0      -0.0       0.0
  4 N                -0.0      -0.0      -0.0      -0.1      -0.1       0.0
  5 C                -0.1      -0.8      -0.3      -0.0      -0.1      -0.6
  6 C                -7.9     -32.6      -2.8      -3.2      -8.0     -33.0
  8 H                -0.0      -0.1      -0.0      -0.0      -0.0      -0.0
 14 H                -0.0      -0.2      -0.0      -0.0      -0.0      -0.3
 15 H               108.4      -0.5      -0.3      -0.3      -0.1      -0.4
 16 H                -0.1     134.4     104.0     104.2     108.4      -0.2
 17 H                -0.1      -0.3      -0.4      -0.4      -0.1     134.4

                    150       151       152   
                   0.00000   0.00000   0.00000
                   0.00017   0.00013   0.00002
                  --------  --------  --------
  5 C                -0.3       0.1      -0.1
  6 C                -3.0      -3.6      -7.8
 15 H                -0.3      -0.4      -0.1
 16 H                -0.5      -0.4      -0.1
 17 H               104.1     104.5     108.2

Storing NBOs: 5461.nbo
                                    *** NBOs were stored ***

                                *** returned from GENNBO program ***

-------
TIMINGS
-------

Total SCF time: 0 days 0 hours 0 min 6 sec 

Total time                  ....       6.318 sec
Sum of individual times     ....       6.882 sec  (108.9%)

Fock matrix formation       ....       4.037 sec  ( 63.9%)
  Coulomb formation         ....       2.098 sec  ( 52.0% of F)
  Split-RI-J                ....       2.091 sec  ( 51.8% of F)
  XC integration            ....       1.934 sec  ( 47.9% of F)
    Basis function eval.    ....       0.655 sec  ( 33.9% of XC)
    Density eval.           ....       0.362 sec  ( 18.7% of XC)
    XC-Functional eval.     ....       0.106 sec  (  5.5% of XC)
    XC-Potential eval.      ....       0.772 sec  ( 39.9% of XC)
Diagonalization             ....       0.031 sec  (  0.5%)
Density matrix formation    ....       0.003 sec  (  0.0%)
Population analysis         ....       1.573 sec  ( 24.9%)
Initial guess               ....       0.428 sec  (  6.8%)
Orbital Transformation      ....       0.000 sec  (  0.0%)
Orbital Orthonormalization  ....       0.000 sec  (  0.0%)
DIIS solution               ....       0.008 sec  (  0.1%)
SOSCF solution              ....       0.013 sec  (  0.2%)
Grid generation             ....       0.789 sec  ( 12.5%)
           ************************************************************
           *              Shut down parallel processing               *
           ************************************************************

-------------------------   --------------------
FINAL SINGLE POINT ENERGY      -326.433100385398
-------------------------   --------------------


                            ***************************************
                            *     ORCA property calculations      *
                            ***************************************

                                    ---------------------
                                    Active property flags
                                    ---------------------
   (+) Dipole Moment


------------------------------------------------------------------------------
                       ORCA ELECTRIC PROPERTIES CALCULATION
------------------------------------------------------------------------------

Dipole Moment Calculation                       ... on
Quadrupole Moment Calculation                   ... off
Polarizability Calculation                      ... off
GBWName                                         ... 5461.gbw
Electron density file                           ... 5461.scfp.tmp

-------------
DIPOLE MOMENT
-------------
                                X             Y             Z
Electronic contribution:     -2.30891      -2.57573      -3.06515
Nuclear contribution   :      2.73065       3.41994       2.98023
                        -----------------------------------------
Total Dipole Moment    :      0.42174       0.84420      -0.08491
                        -----------------------------------------
Magnitude (a.u.)       :      0.94750
Magnitude (Debye)      :      2.40835


Timings for individual modules:

Sum of individual times         ...        7.545 sec (=   0.126 min)
GTO integral calculation        ...        0.472 sec (=   0.008 min)   6.2 %
SCF iterations                  ...        7.074 sec (=   0.118 min)  93.8 %
                             ****ORCA TERMINATED NORMALLY****
TOTAL RUN TIME: 0 days 0 hours 0 minutes 7 seconds 943 msec
