
                                 *****************
                                 * O   R   C   A *
                                 *****************

           --- An Ab Initio, DFT and Semiempirical electronic structure package ---

                  #######################################################
                  #                        -***-                        #
                  #  Department of molecular theory and spectroscopy    #
                  #              Directorship: Frank Neese              #
                  # Max Planck Institute for Chemical Energy Conversion #
                  #                  D-45470 Muelheim/Ruhr              #
                  #                       Germany                       #
                  #                                                     #
                  #                  All rights reserved                #
                  #                        -***-                        #
                  #######################################################


                         Program Version 3.0.3 - RELEASE   -


 With contributions from (in alphabetic order):
   Ute Becker             : Parallelization
   Dmytro Bykov           : SCF Hessian
   Dmitry Ganyushin       : Spin-Orbit,Spin-Spin,Magnetic field MRCI
   Andreas Hansen         : Spin unrestricted coupled pair/coupled cluster methods
   Dimitrios Liakos       : Extrapolation schemes; parallel MDCI
   Robert Izsak           : Overlap fitted RIJCOSX, COSX-SCS-MP3
   Christian Kollmar      : KDIIS, OOCD, Brueckner-CCSD(T), CCSD density
   Simone Kossmann        : Meta GGA functionals, TD-DFT gradient, OOMP2, MP2 Hessian
   Taras Petrenko         : DFT Hessian,TD-DFT gradient, ASA and ECA modules, normal mode analysis, Resonance Raman, ABS, FL, XAS/XES, NRVS
   Christoph Reimann      : Effective Core Potentials
   Michael Roemelt        : Restricted open shell CIS
   Christoph Riplinger    : Improved optimizer, TS searches, QM/MM, DLPNO-CCSD
   Barbara Sandhoefer     : DKH picture change effects
   Igor Schapiro          : Molecular dynamics
   Kantharuban Sivalingam : CASSCF convergence, NEVPT2
   Boris Wezisla          : Elementary symmetry handling
   Frank Wennmohs         : Technical directorship


 We gratefully acknowledge several colleagues who have allowed us to
 interface, adapt or use parts of their codes:
   Stefan Grimme, W. Hujo, H. Kruse, T. Risthaus : VdW corrections, initial TS optimization,
                                                   DFT functionals, gCP
   Ed Valeev                                     : LibInt (2-el integral package), F12 methods
   Garnet Chan, S. Sharma, R. Olivares           : DMRG
   Ulf Ekstrom                                   : XCFun DFT Library
   Mihaly Kallay                                 : mrcc  (arbitrary order and MRCC methods)
   Andreas Klamt, Michael Diedenhofen            : otool_cosmo (COSMO solvation model)
   Frank Weinhold                                : gennbo (NPA and NBO analysis)
   Christopher J. Cramer and Donald G. Truhlar   : smd solvation model


 Your calculation uses the libint2 library for the computation of 2-el integrals
 For citations please refer to: http://libint.valeyev.net

 This ORCA versions uses:
   CBLAS   interface :  Fast vector & matrix operations
   LAPACKE interface :  Fast linear algebra routines
   SCALAPACK package :  Parallel linear algebra routines


Your calculation utilizes the basis: Ahlrichs-VDZ
Cite in your paper:
H - Kr: A. Schaefer, H. Horn and R. Ahlrichs, J. Chem. Phys. 97, 2571 (1992).

Your calculation utilizes the basis: Ahlrichs SVPalls1+f
Cite in your paper:
Rb - Xe: A. Schaefer, C. Huber and R. Ahlrichs, J. Chem. Phys. 100, 5829 (1994).

================================================================================
                                        WARNINGS
                       Please study these warnings very carefully!
================================================================================
Now building the actual basis set


INFO   : the flag for use of LIBINT has been found!

================================================================================
                                       INPUT FILE
================================================================================
NAME = 5472.inp
|  1> ! RI PBE def2-SVP def2-SVP/J NBO PAL2
|  2> % maxcore 2000
|  3> % output
|  4>     # printlevel mini
|  5>     print[ P_Basis ] 0
|  6>     print[ P_SCFInfo ] 1
|  7>     print[ P_SCFIterInfo ] 1
|  8>     print[ P_OrbEn ] 0
|  9>     print[ P_Cartesian ] 0
| 10> end
| 11> *xyz 0 1
| 12>  C        3.3854130000     0.1234100000    -1.0244440000 
| 13>  C        2.5450360000    -0.2611400000     0.1517340000 
| 14>  O        1.3471780000    -0.1423130000     0.1758530000 
| 15>  C        3.2624810000    -0.8251280000     1.3605880000 
| 16>  C        2.5636880000    -1.1858790000     2.4378820000 
| 17>  C        4.6826900000    -0.9595700000     1.3213950000 
| 18>  N        5.8290720000    -1.0570760000     1.2611470000 
| 19>  H        2.7491880000     0.5024180000    -1.8208230000 
| 20>  H        3.9605490000    -0.7377930000    -1.3764840000 
| 21>  H        4.1169880000     0.8824210000    -0.7321460000 
| 22>  H        1.4865170000    -1.0650880000     2.4218560000 
| 23>  H        3.0401090000    -1.5926620000     3.3204420000 
| 24> *
| 25> 
| 26>                          ****END OF INPUT****
================================================================================

                       ****************************
                       * Single Point Calculation *
                       ****************************

--------------------------------
INTERNAL COORDINATES (ANGSTROEM)
--------------------------------
 C      0   0   0   0.000000     0.000     0.000
 C      1   0   0   1.495830     0.000     0.000
 O      2   1   0   1.203979   123.321     0.000
 C      2   1   3   1.514641   117.205   180.037
 C      4   2   1   1.333797   119.813   180.044
 C      4   2   1   1.427096   118.983     0.056
 N      6   4   2   1.152098   178.475   359.073
 H      1   2   3   1.087497   109.678   359.446
 H      1   2   3   1.093793   110.247   237.849
 H      1   2   3   1.093955   110.120   120.868
 H      5   4   2   1.084041   118.588     0.000
 H      5   4   2   1.082295   121.983   179.997

---------------------------
INTERNAL COORDINATES (A.U.)
---------------------------
 C      0   0   0   0.000000     0.000     0.000
 C      1   0   0   2.826709     0.000     0.000
 O      2   1   0   2.275191   123.321     0.000
 C      2   1   3   2.862257   117.205   180.037
 C      4   2   1   2.520512   119.813   180.044
 C      4   2   1   2.696822   118.983     0.056
 N      6   4   2   2.177149   178.475   359.073
 H      1   2   3   2.055071   109.678   359.446
 H      1   2   3   2.066970   110.247   237.849
 H      1   2   3   2.067276   110.120   120.868
 H      5   4   2   2.048540   118.588     0.000
 H      5   4   2   2.045240   121.983   179.997



           ************************************************************
           *        Program running with 2 parallel MPI-processes     *
           *              working on a common directory               *
           ************************************************************
------------------------------------------------------------------------------
                           ORCA GTO INTEGRAL CALCULATION
                           -- RI-GTO INTEGRALS CHOSEN --
------------------------------------------------------------------------------

                         BASIS SET STATISTICS AND STARTUP INFO

Gaussian basis set:
 # of primitive gaussian shells          ...  109
 # of primitive gaussian functions       ...  203
 # of contracted shells                  ...   57
 # of contracted basis functions         ...  123
 Highest angular momentum                ...    2
 Maximum contraction depth               ...    5
Auxiliary gaussian basis set:
 # of primitive gaussian shells          ...  208
 # of primitive gaussian functions       ...  570
 # of contracted shells                  ...  130
 # of contracted aux-basis functions     ...  398
 Highest angular momentum                ...    4
 Maximum contraction depth               ...    7
Ratio of auxiliary to basis functions    ...  3.24
Integral package used                  ... LIBINT
 One Electron integrals                  ... done
 Ordering auxiliary basis shells         ... done
 Integral threshhold             Thresh  ...  1.000e-10
 Primitive cut-off               TCut    ...  1.000e-11
 Pre-screening matrix                    ... done
 Shell pair data                         ... 
 Ordering of the shell pairs             ... done (   0.000 sec) 1591 of 1653 pairs
 Determination of significant pairs      ... done (   0.000 sec)
 Creation of shell pair data             ... done (   0.000 sec)
 Storage of shell pair data              ... done (   0.000 sec)
 Shell pair data done in (   0.001 sec)
 Computing two index integrals           ... done
 Cholesky decomposition of the V-matrix  ... done


Timings:
 Total evaluation time                   ...   0.149 sec (  0.002 min)
 One electron matrix time                ...   0.014 sec (  0.000 min) =  9.2%
 Schwartz matrix evaluation time         ...   0.072 sec (  0.001 min) = 48.6%
 Two index repulsion integral time       ...   0.003 sec (  0.000 min) =  2.0%
 Cholesky decomposition of V             ...   0.003 sec (  0.000 min) =  1.7%
 Three index repulsion integral time     ...   0.000 sec (  0.000 min) =  0.0%

           ************************************************************
           *              Shut down parallel processing               *
           ************************************************************


           ************************************************************
           *        Program running with 2 parallel MPI-processes     *
           *              working on a common directory               *
           ************************************************************
-------------------------------------------------------------------------------
                                 ORCA SCF
-------------------------------------------------------------------------------

------------
SCF SETTINGS
------------
Hamiltonian:
 Density Functional     Method          .... DFT(GTOs)
 Exchange Functional    Exchange        .... PBE
   PBE kappa parameter  XKappa          ....  0.804000
 Correlation Functional Correlation     .... PBE
 LDA part of GGA corr.  LDAOpt          .... PW91-LDA
 Gradients option       PostSCFGGA      .... off
   NL short-range parameter             ....  6.400000
 RI-approximation to the Coulomb term is turned on
   Number of auxiliary basis functions  .... 398


General Settings:
 Integral files         IntName         .... 5472
 Hartree-Fock type      HFTyp           .... RHF
 Total Charge           Charge          ....    0
 Multiplicity           Mult            ....    1
 Number of Electrons    NEL             ....   50
 Basis Dimension        Dim             ....  123
 Nuclear Repulsion      ENuc            ....    257.2815557325 Eh

Convergence Acceleration:
 DIIS                   CNVDIIS         .... on
   Start iteration      DIISMaxIt       ....    12
   Startup error        DIISStart       ....  0.200000
   # of expansion vecs  DIISMaxEq       ....     5
   Bias factor          DIISBfac        ....   1.050
   Max. coefficient     DIISMaxC        ....  10.000
 Newton-Raphson         CNVNR           .... off
 SOSCF                  CNVSOSCF        .... on
   Start iteration      SOSCFMaxIt      ....   150
   Startup grad/error   SOSCFStart      ....  0.003300
 Level Shifting         CNVShift        .... on
   Level shift para.    LevelShift      ....    0.2500
   Turn off err/grad.   ShiftErr        ....    0.0010
 Zerner damping         CNVZerner       .... off
 Static damping         CNVDamp         .... on
   Fraction old density DampFac         ....    0.7000
   Max. Damping (<1)    DampMax         ....    0.9800
   Min. Damping (>=0)   DampMin         ....    0.0000
   Turn off err/grad.   DampErr         ....    0.1000
 Fernandez-Rico         CNVRico         .... off

SCF Procedure:
 Maximum # iterations   MaxIter         ....   125
 SCF integral mode      SCFMode         .... Direct
   Integral package                     .... LIBINT
 Reset frequeny         DirectResetFreq ....    20
 Integral Threshold     Thresh          ....  1.000e-10 Eh
 Primitive CutOff       TCut            ....  1.000e-11 Eh

Convergence Tolerance:
 Convergence Check Mode ConvCheckMode   .... Total+1el-Energy
 Energy Change          TolE            ....  1.000e-06 Eh
 1-El. energy change                    ....  1.000e-03 Eh
 Orbital Gradient       TolG            ....  5.000e-05
 Orbital Rotation angle TolX            ....  5.000e-05
 DIIS Error             TolErr          ....  1.000e-06


Diagonalization of the overlap matrix:
Smallest eigenvalue                        ... 6.325e-04
Time for diagonalization                   ...    0.010 sec
Threshold for overlap eigenvalues          ... 1.000e-08
Number of eigenvalues below threshold      ... 0
Time for construction of square roots      ...    0.003 sec
Total time needed                          ...    0.013 sec

-------------------
DFT GRID GENERATION
-------------------

General Integration Accuracy     IntAcc      ...  4.340
Radial Grid Type                 RadialGrid  ... Gauss-Chebyshev
Angular Grid (max. acc.)         AngularGrid ... Lebedev-110
Angular grid pruning method      GridPruning ... 3 (G Style)
Weight generation scheme         WeightScheme... Becke
Basis function cutoff            BFCut       ...    1.0000e-10
Integration weight cutoff        WCut        ...    1.0000e-14
Grids for H and He will be reduced by one unit

# of grid points (after initial pruning)     ...  15668 (   0.0 sec)
# of grid points (after weights+screening)   ...  14815 (   0.0 sec)
nearest neighbour list constructed           ...    0.0 sec
Grid point re-assignment to atoms done       ...    0.0 sec
Grid point division into batches done        ...    0.0 sec
Reduced shell lists constructed in    0.1 sec

Total number of grid points                  ...    14815
Total number of batches                      ...      236
Average number of points per batch           ...       62
Average number of grid points per atom       ...     1235
Average number of shells per batch           ...    45.24 (79.37%)
Average number of basis functions per batch  ...    98.34 (79.95%)
Average number of large shells per batch     ...    37.38 (82.62%)
Average number of large basis fcns per batch ...    79.98 (81.34%)
Maximum spatial batch extension              ...  15.20, 16.47, 19.63 au
Average spatial batch extension              ...   1.35,  1.72,  1.59 au

Time for grid setup =    0.115 sec

------------------------------
INITIAL GUESS: MODEL POTENTIAL
------------------------------
Loading Hartree-Fock densities                     ... done
Calculating cut-offs                               ... done
Setting up the integral package                    ... done
Initializing the effective Hamiltonian             ... done
Starting the Coulomb interaction                   ... done (   0.0 sec)
Reading the grid                                   ... done
Mapping shells                                     ... done
Starting the XC term evaluation                    ... done (   0.1 sec)
  promolecular density results
     # of electrons  =     50.000124866
     EX              =    -41.628629513
     EC              =     -1.631506986
     EX+EC           =    -43.260136500
Transforming the Hamiltonian                       ... done (   0.0 sec)
Diagonalizing the Hamiltonian                      ... done (   0.0 sec)
Back transforming the eigenvectors                 ... done (   0.0 sec)
Now organizing SCF variables                       ... done
                      ------------------
                      INITIAL GUESS DONE (   0.3 sec)
                      ------------------
--------------
SCF ITERATIONS
--------------
ITER       Energy         Delta-E        Max-DP      RMS-DP      [F,P]     Damp
               ***  Starting incremental Fock matrix formation  ***
  0   -322.6449536122   0.000000000000 0.17043936  0.00445762  0.2388314 0.7000
  1   -322.7490639205  -0.104110308293 0.08722980  0.00250005  0.0767258 0.7000
                               ***Turning on DIIS***
  2   -322.7742327951  -0.025168874594 0.08194508  0.00315471  0.0425360 0.0000
  3   -322.8352749255  -0.061042130400 0.05917738  0.00172609  0.0475012 0.0000
  4   -322.8419156204  -0.006640694902 0.01540216  0.00057368  0.0401152 0.0000
  5   -322.8445738803  -0.002658259887 0.00651670  0.00020600  0.0085249 0.0000
                      *** Initiating the SOSCF procedure ***
                           *** Shutting down DIIS ***
                      *** Re-Reading the Fockian *** 
                      *** Removing any level shift *** 
ITER      Energy       Delta-E        Grad      Rot      Max-DP    RMS-DP
  6   -322.84472233  -0.0001484499  0.000604  0.000604  0.001496  0.000060
               *** Restarting incremental Fock matrix formation ***
  7   -322.84473633  -0.0000140030  0.000215  0.001059  0.001549  0.000052
  8   -322.84472988   0.0000064547  0.000661  0.001092  0.001167  0.000038
  9   -322.84473753  -0.0000076476  0.000052  0.000178  0.000236  0.000009
                 **** Energy Check signals convergence ****
              ***Rediagonalizing the Fockian in SOSCF/NRSCF***

               *****************************************************
               *                     SUCCESS                       *
               *           SCF CONVERGED AFTER  10 CYCLES          *
               *****************************************************

Setting up the final grid:

General Integration Accuracy     IntAcc      ...  4.670
Radial Grid Type                 RadialGrid  ... Gauss-Chebyshev
Angular Grid (max. acc.)         AngularGrid ... Lebedev-302
Angular grid pruning method      GridPruning ... 3 (G Style)
Weight generation scheme         WeightScheme... Becke
Basis function cutoff            BFCut       ...    1.0000e-10
Integration weight cutoff        WCut        ...    1.0000e-14
Grids for H and He will be reduced by one unit

# of grid points (after initial pruning)     ...  60454 (   0.0 sec)
# of grid points (after weights+screening)   ...  56470 (   0.1 sec)
nearest neighbour list constructed           ...    0.0 sec
Grid point re-assignment to atoms done       ...    0.0 sec
Grid point division into batches done        ...    0.2 sec
Reduced shell lists constructed in    0.4 sec

Total number of grid points                  ...    56470
Total number of batches                      ...      889
Average number of points per batch           ...       63
Average number of grid points per atom       ...     4706
Average number of shells per batch           ...    42.54 (74.62%)
Average number of basis functions per batch  ...    91.77 (74.61%)
Average number of large shells per batch     ...    34.13 (80.23%)
Average number of large basis fcns per batch ...    72.01 (78.47%)
Maximum spatial batch extension              ...  13.27, 19.00, 16.05 au
Average spatial batch extension              ...   0.97,  1.14,  1.06 au

Final grid set up in    0.4 sec
Final integration                            ... done (   0.3 sec)
Change in XC energy                          ...    -0.000229905
Integrated number of electrons               ...    50.000049437
Previous integrated no of electrons          ...    50.000428029

----------------
TOTAL SCF ENERGY
----------------

Total Energy       :         -322.84496722 Eh           -8785.05818 eV

Components:
Nuclear Repulsion  :          257.28155573 Eh            7000.98705 eV
Electronic Energy  :         -580.12652296 Eh          -15786.04524 eV

One Electron Energy:         -946.35213980 Eh          -25751.55091 eV
Two Electron Energy:          366.22561685 Eh            9965.50567 eV

Virial components:
Potential Energy   :         -642.97380825 Eh          -17496.20681 eV
Kinetic Energy     :          320.12884103 Eh            8711.14863 eV
Virial Ratio       :            2.00848448


DFT components:
N(Alpha)           :       25.000024718340 electrons
N(Beta)            :       25.000024718340 electrons
N(Total)           :       50.000049436680 electrons
E(X)               :      -42.312944036209 Eh       
E(C)               :       -1.651510208110 Eh       
E(XC)              :      -43.964454244319 Eh       

---------------
SCF CONVERGENCE
---------------

  Last Energy change         ...    2.0727e-07  Tolerance :   1.0000e-06
  Last MAX-Density change    ...    2.1771e-04  Tolerance :   1.0000e-05
  Last RMS-Density change    ...    6.1616e-06  Tolerance :   1.0000e-06
  Last Orbital Gradient      ...    1.3654e-04  Tolerance :   5.0000e-05
  Last Orbital Rotation      ...    2.6234e-04  Tolerance :   5.0000e-05

             **** THE GBW FILE WAS UPDATED (5472.gbw) ****
             **** DENSITY FILE WAS UPDATED (5472.scfp.tmp) ****
             **** ENERGY FILE WAS UPDATED (5472.en.tmp) ****

                    ********************************
                    * MULLIKEN POPULATION ANALYSIS *
                    ********************************

-----------------------
MULLIKEN ATOMIC CHARGES
-----------------------
   0 C :    0.050900
   1 C :   -0.017637
   2 O :   -0.134766
   3 C :   -0.171837
   4 C :    0.062891
   5 C :   -0.136867
   6 N :    0.070341
   7 H :    0.042281
   8 H :    0.061435
   9 H :    0.062931
  10 H :    0.059735
  11 H :    0.050593
Sum of atomic charges:   -0.0000000

--------------------------------
MULLIKEN REDUCED ORBITAL CHARGES
--------------------------------
  0 C s       :     2.904899  s :     2.904899
      pz      :     1.001391  p :     3.022643
      px      :     1.003236
      py      :     1.018016
      dz2     :     0.003941  d :     0.021558
      dxz     :     0.006590
      dyz     :     0.003591
      dx2y2   :     0.001412
      dxy     :     0.006025
  1 C s       :     3.139731  s :     3.139731
      pz      :     0.982238  p :     2.783837
      px      :     0.968991
      py      :     0.832608
      dz2     :     0.012256  d :     0.094068
      dxz     :     0.039618
      dyz     :     0.005266
      dx2y2   :     0.014979
      dxy     :     0.021949
  2 O s       :     3.733145  s :     3.733145
      pz      :     1.696307  p :     4.383466
      px      :     1.330443
      py      :     1.356716
      dz2     :     0.002106  d :     0.018155
      dxz     :     0.004451
      dyz     :     0.000104
      dx2y2   :     0.005901
      dxy     :     0.005592
  3 C s       :     3.121317  s :     3.121317
      pz      :     1.010629  p :     3.011796
      px      :     0.960919
      py      :     1.040248
      dz2     :     0.009589  d :     0.038724
      dxz     :     0.010834
      dyz     :     0.004951
      dx2y2   :     0.007316
      dxy     :     0.006034
  4 C s       :     3.159961  s :     3.159961
      pz      :     0.944532  p :     2.753352
      px      :     0.949757
      py      :     0.859063
      dz2     :     0.006925  d :     0.023797
      dxz     :     0.006796
      dyz     :     0.003936
      dx2y2   :     0.003623
      dxy     :     0.002518
  5 C s       :     3.113440  s :     3.113440
      pz      :     0.962405  p :     2.979943
      px      :     1.046863
      py      :     0.970675
      dz2     :     0.003068  d :     0.043484
      dxz     :     0.015215
      dyz     :     0.000277
      dx2y2   :     0.009006
      dxy     :     0.015917
  6 N s       :     3.551962  s :     3.551962
      pz      :     1.037503  p :     3.346655
      px      :     1.271222
      py      :     1.037931
      dz2     :     0.002934  d :     0.031042
      dxz     :     0.009700
      dyz     :     0.000095
      dx2y2   :     0.008712
      dxy     :     0.009601
  7 H s       :     0.934371  s :     0.934371
      pz      :     0.009277  p :     0.023348
      px      :     0.007994
      py      :     0.006078
  8 H s       :     0.913517  s :     0.913517
      pz      :     0.006202  p :     0.025048
      px      :     0.008210
      py      :     0.010636
  9 H s       :     0.912035  s :     0.912035
      pz      :     0.005356  p :     0.025034
      px      :     0.009607
      py      :     0.010071
 10 H s       :     0.915297  s :     0.915297
      pz      :     0.004840  p :     0.024968
      px      :     0.015602
      py      :     0.004526
 11 H s       :     0.925333  s :     0.925333
      pz      :     0.011493  p :     0.024073
      px      :     0.006558
      py      :     0.006022


                     *******************************
                     * LOEWDIN POPULATION ANALYSIS *
                     *******************************

----------------------
LOEWDIN ATOMIC CHARGES
----------------------
   0 C :   -0.082141
   1 C :    0.067326
   2 O :   -0.100078
   3 C :   -0.110570
   4 C :    0.070917
   5 C :   -0.043445
   6 N :   -0.045832
   7 H :    0.044426
   8 H :    0.057378
   9 H :    0.057704
  10 H :    0.041449
  11 H :    0.042867

-------------------------------
LOEWDIN REDUCED ORBITAL CHARGES
-------------------------------
  0 C s       :     2.843153  s :     2.843153
      pz      :     1.047303  p :     3.174746
      px      :     1.061397
      py      :     1.066045
      dz2     :     0.011330  d :     0.064242
      dxz     :     0.020821
      dyz     :     0.010499
      dx2y2   :     0.003740
      dxy     :     0.017852
  1 C s       :     2.874065  s :     2.874065
      pz      :     0.992020  p :     2.839683
      px      :     1.026990
      py      :     0.820673
      dz2     :     0.029004  d :     0.218925
      dxz     :     0.096798
      dyz     :     0.011002
      dx2y2   :     0.038319
      dxy     :     0.043803
  2 O s       :     3.541985  s :     3.541985
      pz      :     1.700041  p :     4.526241
      px      :     1.467734
      py      :     1.358466
      dz2     :     0.004423  d :     0.031852
      dxz     :     0.007187
      dyz     :     0.000119
      dx2y2   :     0.012708
      dxy     :     0.007415
  3 C s       :     2.874386  s :     2.874386
      pz      :     1.081059  p :     3.127066
      px      :     1.033507
      py      :     1.012501
      dz2     :     0.027608  d :     0.109118
      dxz     :     0.032621
      dyz     :     0.012924
      dx2y2   :     0.021245
      dxy     :     0.014720
  4 C s       :     2.889170  s :     2.889170
      pz      :     1.032099  p :     2.973026
      px      :     1.066766
      py      :     0.874160
      dz2     :     0.019785  d :     0.066887
      dxz     :     0.020297
      dyz     :     0.010058
      dx2y2   :     0.010816
      dxy     :     0.005932
  5 C s       :     2.908685  s :     2.908685
      pz      :     0.928889  p :     3.025194
      px      :     1.151830
      py      :     0.944475
      dz2     :     0.010714  d :     0.109566
      dxz     :     0.033177
      dyz     :     0.000463
      dx2y2   :     0.031022
      dxy     :     0.034190
  6 N s       :     3.424261  s :     3.424261
      pz      :     1.049909  p :     3.567808
      px      :     1.469199
      py      :     1.048701
      dz2     :     0.006454  d :     0.053762
      dxz     :     0.014033
      dyz     :     0.000137
      dx2y2   :     0.019134
      dxy     :     0.014005
  7 H s       :     0.887256  s :     0.887256
      pz      :     0.029194  p :     0.068318
      px      :     0.022688
      py      :     0.016435
  8 H s       :     0.873310  s :     0.873310
      pz      :     0.016617  p :     0.069312
      px      :     0.022141
      py      :     0.030554
  9 H s       :     0.873026  s :     0.873026
      pz      :     0.015313  p :     0.069270
      px      :     0.026963
      py      :     0.026993
 10 H s       :     0.884821  s :     0.884821
      pz      :     0.012587  p :     0.073730
      px      :     0.047893
      py      :     0.013249
 11 H s       :     0.886217  s :     0.886217
      pz      :     0.033916  p :     0.070917
      px      :     0.019608
      py      :     0.017392


                      *****************************
                      * MAYER POPULATION ANALYSIS *
                      *****************************

  NA   - Mulliken gross atomic population
  ZA   - Total nuclear charge
  QA   - Mulliken gross atomic charge
  VA   - Mayer's total valence
  BVA  - Mayer's bonded valence
  FA   - Mayer's free valence

  ATOM       NA         ZA         QA         VA         BVA        FA
  0 C      5.9491     6.0000     0.0509     3.8808     3.8808     0.0000
  1 C      6.0176     6.0000    -0.0176     4.3166     4.3166    -0.0000
  2 O      8.1348     8.0000    -0.1348     2.3738     2.3738    -0.0000
  3 C      6.1718     6.0000    -0.1718     3.9592     3.9592     0.0000
  4 C      5.9371     6.0000     0.0629     3.9512     3.9512    -0.0000
  5 C      6.1369     6.0000    -0.1369     4.0635     4.0635     0.0000
  6 N      6.9297     7.0000     0.0703     3.1470     3.1470    -0.0000
  7 H      0.9577     1.0000     0.0423     1.0160     1.0160     0.0000
  8 H      0.9386     1.0000     0.0614     0.9992     0.9992    -0.0000
  9 H      0.9371     1.0000     0.0629     0.9981     0.9981    -0.0000
 10 H      0.9403     1.0000     0.0597     1.0058     1.0058     0.0000
 11 H      0.9494     1.0000     0.0506     0.9781     0.9781    -0.0000

  Mayer bond orders larger than 0.1
B(  0-C ,  1-C ) :   1.1113 B(  0-C ,  7-H ) :   0.9326 B(  0-C ,  8-H ) :   0.9206 
B(  0-C ,  9-H ) :   0.9219 B(  1-C ,  2-O ) :   2.1825 B(  1-C ,  3-C ) :   0.8739 
B(  3-C ,  4-C ) :   1.9370 B(  3-C ,  5-C ) :   1.0845 B(  4-C ,  6-N ) :   0.1120 
B(  4-C , 10-H ) :   0.9133 B(  4-C , 11-H ) :   0.9358 B(  5-C ,  6-N ) :   2.9635 



 *********************************** NBO 6.0 ***********************************
             N A T U R A L   A T O M I C   O R B I T A L   A N D
          N A T U R A L   B O N D   O R B I T A L   A N A L Y S I S
 ***************************** Kiya KiyaLu (100703) ****************************
  (c) Copyright 1996-2015 Board of Regents of the University of Wisconsin System
      on behalf of the Theoretical Chemistry Institute.  All rights reserved.

          Cite this program as:

          NBO 6.0.  E. D. Glendening, J. K. Badenhoop, A. E. Reed,
          J. E. Carpenter, J. A. Bohmann, C. M. Morales, C. R. Landis,
          and F. Weinhold (Theoretical Chemistry Institute, University
          of Wisconsin, Madison, WI, 2013); http://nbo6.chem.wisc.edu/

       /NPA    / : Natural Population Analysis
       /NBO    / : Natural Bond Orbital Analysis
       /AONBO  / : Write the AO to NBO transformation to lfn77
       /FILE   / : Set to 5472

 Filename set to 5472

 Job title:  *** NBO job generated by orca_scf

 Warning: MOs are non-orthogonal; program will continue

 Warning: -2708.86485 electrons reside outside the linearly independent MO space


 NATURAL POPULATIONS:  Natural atomic orbital occupancies

  NAO Atom No lang   Type(AO)    Occupancy      Energy
 -------------------------------------------------------
   1    C  1  s      Cor( 1s)     1.99914      -9.79904
   2    C  1  s      Val( 2s)     1.11690      -0.25020
   3    C  1  s      Ryd( 3s)     0.00088       0.82686
   4    C  1  px     Val( 2p)     1.21572      -0.09855
   5    C  1  px     Ryd( 3p)     0.00188       0.54188
   6    C  1  py     Val( 2p)     1.23143      -0.10229
   7    C  1  py     Ryd( 3p)     0.00068       0.53495
   8    C  1  pz     Val( 2p)     1.17395      -0.10434
   9    C  1  pz     Ryd( 3p)     0.00181       0.52752
  10    C  1  dxy    Ryd( 3d)     0.00063       2.31147
  11    C  1  dxz    Ryd( 3d)     0.00066       2.27406
  12    C  1  dyz    Ryd( 3d)     0.00036       2.09480
  13    C  1  dx2y2  Ryd( 3d)     0.00018       2.01989
  14    C  1  dz2    Ryd( 3d)     0.00042       2.07853

  15    C  2  s      Cor( 1s)     1.99915      -9.89086
  16    C  2  s      Val( 2s)     0.81532      -0.16017
  17    C  2  s      Ryd( 3s)     0.00435       0.51676
  18    C  2  px     Val( 2p)     0.80676      -0.02679
  19    C  2  px     Ryd( 3p)     0.02069       0.61373
  20    C  2  py     Val( 2p)     0.80392      -0.14279
  21    C  2  py     Ryd( 3p)     0.00195       0.52957
  22    C  2  pz     Val( 2p)     0.98061      -0.09249
  23    C  2  pz     Ryd( 3p)     0.00480       0.69357
  24    C  2  dxy    Ryd( 3d)     0.00262       1.97781
  25    C  2  dxz    Ryd( 3d)     0.00391       2.24952
  26    C  2  dyz    Ryd( 3d)     0.00055       1.90646
  27    C  2  dx2y2  Ryd( 3d)     0.00123       2.16810
  28    C  2  dz2    Ryd( 3d)     0.00101       2.08425

  29    O  3  s      Cor( 1s)     1.99972     -18.50925
  30    O  3  s      Val( 2s)     1.68159      -0.81453
  31    O  3  s      Ryd( 3s)     0.00097       1.43294
  32    O  3  px     Val( 2p)     1.61814      -0.30176
  33    O  3  px     Ryd( 3p)     0.00058       0.98151
  34    O  3  py     Val( 2p)     1.40657      -0.24579
  35    O  3  py     Ryd( 3p)     0.00094       1.00929
  36    O  3  pz     Val( 2p)     1.78414      -0.23063
  37    O  3  pz     Ryd( 3p)     0.00270       1.13912
  38    O  3  dxy    Ryd( 3d)     0.00226       2.71887
  39    O  3  dxz    Ryd( 3d)     0.00214       2.77137
  40    O  3  dyz    Ryd( 3d)     0.00005       2.54460
  41    O  3  dx2y2  Ryd( 3d)     0.00232       3.05340
  42    O  3  dz2    Ryd( 3d)     0.00082       2.71884

  43    C  4  s      Cor( 1s)     1.99870      -9.83304
  44    C  4  s      Val( 2s)     0.92232      -0.16669
  45    C  4  s      Ryd( 3s)     0.00324       0.42716
  46    C  4  px     Val( 2p)     1.09930      -0.11015
  47    C  4  px     Ryd( 3p)     0.00485       0.89272
  48    C  4  py     Val( 2p)     1.08251      -0.14930
  49    C  4  py     Ryd( 3p)     0.00106       0.62889
  50    C  4  pz     Val( 2p)     1.14428      -0.12715
  51    C  4  pz     Ryd( 3p)     0.00297       0.79165
  52    C  4  dxy    Ryd( 3d)     0.00048       1.88305
  53    C  4  dxz    Ryd( 3d)     0.00070       2.24432
  54    C  4  dyz    Ryd( 3d)     0.00052       1.95412
  55    C  4  dx2y2  Ryd( 3d)     0.00073       2.13235
  56    C  4  dz2    Ryd( 3d)     0.00079       2.11888

  57    C  5  s      Cor( 1s)     1.99896      -9.81948
  58    C  5  s      Val( 2s)     1.05347      -0.21760
  59    C  5  s      Ryd( 3s)     0.00084       0.50195
  60    C  5  px     Val( 2p)     1.18780      -0.07715
  61    C  5  px     Ryd( 3p)     0.00420       0.71055
  62    C  5  py     Val( 2p)     0.89119      -0.14601
  63    C  5  py     Ryd( 3p)     0.00116       0.48462
  64    C  5  pz     Val( 2p)     1.09768      -0.08341
  65    C  5  pz     Ryd( 3p)     0.00274       0.55611
  66    C  5  dxy    Ryd( 3d)     0.00031       1.88594
  67    C  5  dxz    Ryd( 3d)     0.00066       2.25803
  68    C  5  dyz    Ryd( 3d)     0.00050       2.01389
  69    C  5  dx2y2  Ryd( 3d)     0.00042       2.16263
  70    C  5  dz2    Ryd( 3d)     0.00058       2.18028

  71    C  6  s      Cor( 1s)     1.99917      -9.82063
  72    C  6  s      Val( 2s)     0.81198      -0.12229
  73    C  6  s      Ryd( 3s)     0.00611       0.61580
  74    C  6  px     Val( 2p)     1.00180       0.03246
  75    C  6  px     Ryd( 3p)     0.02072       0.57372
  76    C  6  py     Val( 2p)     0.94821      -0.11694
  77    C  6  py     Ryd( 3p)     0.00151       0.50623
  78    C  6  pz     Val( 2p)     0.94076      -0.11645
  79    C  6  pz     Ryd( 3p)     0.00383       0.57120
  80    C  6  dxy    Ryd( 3d)     0.00158       2.15425
  81    C  6  dxz    Ryd( 3d)     0.00144       2.19120
  82    C  6  dyz    Ryd( 3d)     0.00004       1.65406
  83    C  6  dx2y2  Ryd( 3d)     0.00075       2.59153
  84    C  6  dz2    Ryd( 3d)     0.00026       1.98234

  85    N  7  s      Cor( 1s)     1.99957     -13.75537
  86    N  7  s      Val( 2s)     1.58467      -0.51893
  87    N  7  s      Ryd( 3s)     0.00494       1.14716
  88    N  7  px     Val( 2p)     1.53977      -0.17120
  89    N  7  px     Ryd( 3p)     0.00216       0.78072
  90    N  7  py     Val( 2p)     1.07423      -0.15175
  91    N  7  py     Ryd( 3p)     0.00042       0.79601
  92    N  7  pz     Val( 2p)     1.07311      -0.15132
  93    N  7  pz     Ryd( 3p)     0.00034       0.81816
  94    N  7  dxy    Ryd( 3d)     0.00283       2.33250
  95    N  7  dxz    Ryd( 3d)     0.00283       2.34448
  96    N  7  dyz    Ryd( 3d)     0.00003       2.08364
  97    N  7  dx2y2  Ryd( 3d)     0.00284       2.69701
  98    N  7  dz2    Ryd( 3d)     0.00094       2.29347

  99    H  8  s      Val( 1s)     0.74477       0.06000
 100    H  8  s      Ryd( 2s)     0.00272       0.31189
 101    H  8  px     Ryd( 2p)     0.00038       1.90985
 102    H  8  py     Ryd( 2p)     0.00019       1.76598
 103    H  8  pz     Ryd( 2p)     0.00046       2.03981

 104    H  9  s      Val( 1s)     0.73909       0.04167
 105    H  9  s      Ryd( 2s)     0.00113       0.33274
 106    H  9  px     Ryd( 2p)     0.00038       1.88747
 107    H  9  py     Ryd( 2p)     0.00052       2.05458
 108    H  9  pz     Ryd( 2p)     0.00024       1.74281

 109    H 10  s      Val( 1s)     0.73907       0.04150
 110    H 10  s      Ryd( 2s)     0.00113       0.33305
 111    H 10  px     Ryd( 2p)     0.00048       1.98658
 112    H 10  py     Ryd( 2p)     0.00049       2.00250
 113    H 10  pz     Ryd( 2p)     0.00017       1.69753

 114    H 11  s      Val( 1s)     0.76394       0.04125
 115    H 11  s      Ryd( 2s)     0.00381       0.31499
 116    H 11  px     Ryd( 2p)     0.00101       2.29010
 117    H 11  py     Ryd( 2p)     0.00018       1.57151
 118    H 11  pz     Ryd( 2p)     0.00016       1.68844

 119    H 12  s      Val( 1s)     0.77314       0.03194
 120    H 12  s      Ryd( 2s)     0.00108       0.29022
 121    H 12  px     Ryd( 2p)     0.00026       1.83027
 122    H 12  py     Ryd( 2p)     0.00030       1.66550
 123    H 12  pz     Ryd( 2p)     0.00065       2.09542

   1 low occupancy (<1.9990e) core orbital  found on  C  4
   1 low occupancy (<1.9990e) core orbital  found on  C  5


 Summary of Natural Population Analysis:

                                     Natural Population
             Natural    ---------------------------------------------
  Atom No    Charge        Core      Valence    Rydberg      Total
 --------------------------------------------------------------------
    C  1   -0.74465      1.99914     4.73800    0.00751     6.74465
    C  2    0.55313      1.99915     3.40662    0.04110     5.44687
    O  3   -0.50294      1.99972     6.49044    0.01278     8.50294
    C  4   -0.26246      1.99870     4.24841    0.01535     6.26246
    C  5   -0.24051      1.99896     4.23015    0.01141     6.24051
    C  6    0.26185      1.99917     3.70274    0.03624     5.73815
    N  7   -0.28868      1.99957     5.27177    0.01733     7.28868
    H  8    0.25149      0.00000     0.74477    0.00374     0.74851
    H  9    0.25864      0.00000     0.73909    0.00228     0.74136
    H 10    0.25865      0.00000     0.73907    0.00228     0.74135
    H 11    0.23091      0.00000     0.76394    0.00516     0.76909
    H 12    0.22456      0.00000     0.77314    0.00229     0.77544
 ====================================================================
 * Total *  0.00000     13.99441    35.84813    0.15746    50.00000

                                 Natural Population
 ---------------------------------------------------------
   Core                      13.99441 ( 99.9601% of   14)
   Valence                   35.84813 ( 99.5782% of   36)
   Natural Minimal Basis     49.84254 ( 99.6851% of   50)
   Natural Rydberg Basis      0.15746 (  0.3149% of   50)
 ---------------------------------------------------------

    Atom No         Natural Electron Configuration
 ----------------------------------------------------------------------------
      C  1      [core]2s( 1.12)2p( 3.62)
      C  2      [core]2s( 0.82)2p( 2.59)3p( 0.03)3d( 0.01)
      O  3      [core]2s( 1.68)2p( 4.81)3d( 0.01)
      C  4      [core]2s( 0.92)2p( 3.33)3p( 0.01)
      C  5      [core]2s( 1.05)2p( 3.18)3p( 0.01)
      C  6      [core]2s( 0.81)2p( 2.89)3s( 0.01)3p( 0.03)
      N  7      [core]2s( 1.58)2p( 3.69)3d( 0.01)
      H  8            1s( 0.74)
      H  9            1s( 0.74)
      H 10            1s( 0.74)
      H 11            1s( 0.76)
      H 12            1s( 0.77)


 NATURAL BOND ORBITAL ANALYSIS:

                            Occupancies       Lewis Structure    Low   High
         Max    Occ     -------------------  -----------------   occ   occ
  Cycle  Ctr   Thresh    Lewis   non-Lewis     CR  BD  nC  LP    (L)   (NL)
 ============================================================================
    1     2     1.90    48.52887   1.47113      7  14   0   4     2      2
    2     2     1.86    48.52887   1.47113      7  14   0   4     2      2
    3     2     1.85    49.31643   0.68357      7  15   0   3     0      1
 ----------------------------------------------------------------------------

 Structure accepted: No low occupancy Lewis orbitals

 -------------------------------------------------------
   Core                     13.99441 ( 99.960% of  14)
   Valence Lewis            35.32202 ( 98.117% of  36)
  ==================      =============================
   Total Lewis              49.31643 ( 98.633% of  50)
  -----------------------------------------------------
   Valence non-Lewis         0.58070 (  1.161% of  50)
   Rydberg non-Lewis         0.10288 (  0.206% of  50)
  ==================      =============================
   Total non-Lewis           0.68357 (  1.367% of  50)
 -------------------------------------------------------


     (Occupancy)   Bond orbital / Coefficients / Hybrids
 ------------------ Lewis ------------------------------------------------------
   1. (1.99914) CR ( 1) C  1            s(100.00%)
                                         1.0000  0.0000  0.0000  0.0000  0.0000
                                         0.0000  0.0000  0.0000  0.0000  0.0000
                                         0.0000  0.0000  0.0000  0.0000
   2. (1.99915) CR ( 1) C  2            s(100.00%)
                                         1.0000  0.0000  0.0000  0.0000  0.0000
                                         0.0000  0.0000  0.0000  0.0000  0.0000
                                         0.0000  0.0000  0.0000  0.0000
   3. (1.99972) CR ( 1) O  3            s(100.00%)
                                         1.0000  0.0000  0.0000  0.0000  0.0000
                                         0.0000  0.0000  0.0000  0.0000  0.0000
                                         0.0000  0.0000  0.0000  0.0000
   4. (1.99870) CR ( 1) C  4            s(100.00%)
                                         1.0000  0.0000  0.0000  0.0000  0.0000
                                         0.0000  0.0000  0.0000  0.0000  0.0000
                                         0.0000  0.0000  0.0000  0.0000
   5. (1.99896) CR ( 1) C  5            s(100.00%)
                                         1.0000  0.0000  0.0000  0.0000  0.0000
                                         0.0000  0.0000  0.0000  0.0000  0.0000
                                         0.0000  0.0000  0.0000  0.0000
   6. (1.99917) CR ( 1) C  6            s(100.00%)
                                         1.0000  0.0000  0.0000  0.0000  0.0000
                                         0.0000  0.0000  0.0000  0.0000  0.0000
                                         0.0000  0.0000  0.0000  0.0000
   7. (1.99957) CR ( 1) N  7            s(100.00%)
                                         1.0000  0.0000  0.0000  0.0000  0.0000
                                         0.0000  0.0000  0.0000  0.0000  0.0000
                                         0.0000  0.0000  0.0000  0.0000
   8. (1.97464) LP ( 1) O  3            s( 54.50%)p 0.83( 45.46%)d 0.00(  0.03%)
                                         0.0000  0.7382 -0.0120 -0.6709  0.0028
                                         0.0647 -0.0002  0.0182 -0.0005  0.0035
                                         0.0005  0.0021 -0.0165  0.0071
   9. (1.85939) LP ( 2) O  3            s(  0.01%)p99.99( 99.88%)d 8.87(  0.11%)
                                         0.0000  0.0099  0.0051  0.0215  0.0003
                                         0.3712 -0.0064 -0.9275  0.0163  0.0122
                                        -0.0306  0.0035  0.0024 -0.0001
  10. (1.96975) LP ( 1) N  7            s( 52.19%)p 0.92( 47.76%)d 0.00(  0.05%)
                                         0.0000  0.7219 -0.0271  0.6871  0.0288
                                        -0.0589 -0.0025 -0.0344 -0.0021  0.0034
                                         0.0018 -0.0002 -0.0196  0.0114
  11. (1.98755) BD ( 1) C  1- C  2
               ( 51.02%)   0.7143* C  1 s( 28.71%)p 2.48( 71.24%)d 0.00(  0.04%)
                                         0.0000  0.5359 -0.0027 -0.4709 -0.0121
                                        -0.2189  0.0044  0.6653 -0.0059  0.0055
                                        -0.0160 -0.0074  0.0030  0.0099
               ( 48.98%)   0.6998* C  2 s( 36.09%)p 1.77( 63.87%)d 0.00(  0.04%)
                                         0.0000  0.6006 -0.0121  0.4161 -0.0294
                                         0.2166  0.0054 -0.6463 -0.0035  0.0053
                                        -0.0157 -0.0062  0.0037  0.0081
  12. (1.98508) BD ( 1) C  1- H  8
               ( 62.62%)   0.7913* C  1 s( 24.77%)p 3.04( 75.20%)d 0.00(  0.03%)
                                         0.0000  0.4976  0.0066 -0.4901  0.0115
                                         0.3051 -0.0014 -0.6470 -0.0002 -0.0066
                                         0.0136 -0.0071  0.0050  0.0035
               ( 37.38%)   0.6114* H  8 s( 99.90%)p 0.00(  0.10%)
                                         0.9995 -0.0013  0.0178 -0.0109  0.0227
  13. (1.96097) BD ( 1) C  1- H  9
               ( 62.49%)   0.7905* C  1 s( 23.27%)p 3.30( 76.69%)d 0.00(  0.04%)
                                         0.0000  0.4824 -0.0003  0.4512  0.0027
                                        -0.6895  0.0049 -0.2960 -0.0167 -0.0134
                                        -0.0040  0.0046 -0.0081 -0.0100
               ( 37.51%)   0.6125* H  9 s( 99.90%)p 0.00(  0.10%)
                                         0.9995 -0.0009 -0.0173  0.0230  0.0135
  14. (1.96010) BD ( 1) C  1- H 10
               ( 62.47%)   0.7904* C  1 s( 23.21%)p 3.31( 76.75%)d 0.00(  0.04%)
                                         0.0000  0.4817 -0.0002  0.5777  0.0029
                                         0.6189  0.0072  0.2246 -0.0155  0.0140
                                         0.0078  0.0103  0.0004 -0.0044
               ( 37.53%)   0.6126* H 10 s( 99.90%)p 0.00(  0.10%)
                                         0.9995 -0.0009 -0.0216 -0.0227 -0.0048
  15. (1.99378) BD ( 1) C  2- O  3
               ( 33.43%)   0.5781* C  2 s( 30.84%)p 2.24( 68.97%)d 0.01(  0.19%)
                                         0.0000  0.5544  0.0327 -0.8236 -0.0639
                                         0.0821  0.0115  0.0149 -0.0115 -0.0068
                                        -0.0031  0.0000  0.0373 -0.0215
               ( 66.57%)   0.8159* O  3 s( 45.49%)p 1.19( 54.32%)d 0.00(  0.18%)
                                         0.0000  0.6742  0.0199  0.7328  0.0188
                                        -0.0763 -0.0015 -0.0062 -0.0010 -0.0074
                                        -0.0004  0.0017  0.0354 -0.0228
  16. (1.97285) BD ( 2) C  2- O  3
               ( 34.75%)   0.5895* C  2 s(  0.00%)p 1.00( 99.73%)d 0.00(  0.27%)
                                         0.0000  0.0002  0.0012  0.0986 -0.0016
                                         0.9212 -0.0215  0.3722 -0.0027 -0.0471
                                        -0.0190  0.0048 -0.0090  0.0022
               ( 65.25%)   0.8078* O  3 s(  0.00%)p 1.00( 99.83%)d 0.00(  0.17%)
                                         0.0000  0.0001  0.0003  0.0991  0.0018
                                         0.9221  0.0154  0.3713  0.0048  0.0379
                                         0.0155 -0.0017  0.0083 -0.0001
  17. (1.96206) BD ( 1) C  2- C  4
               ( 46.41%)   0.6813* C  2 s( 32.72%)p 2.05( 67.23%)d 0.00(  0.05%)
                                         0.0000  0.5720 -0.0072  0.3670 -0.0130
                                        -0.3081  0.0042  0.6652 -0.0055 -0.0069
                                         0.0151 -0.0108  0.0015  0.0094
               ( 53.59%)   0.7320* C  4 s( 31.34%)p 2.19( 68.64%)d 0.00(  0.03%)
                                         0.0000  0.5597 -0.0089 -0.3724  0.0045
                                         0.3117 -0.0073 -0.6710  0.0138 -0.0042
                                         0.0074 -0.0102  0.0032  0.0091
  18. (1.97333) BD ( 1) C  4- C  5
               ( 52.63%)   0.7255* C  4 s( 38.09%)p 1.62( 61.88%)d 0.00(  0.04%)
                                         0.0000  0.6168  0.0207 -0.4041 -0.0036
                                        -0.2141 -0.0069  0.6397  0.0185  0.0025
                                        -0.0105 -0.0102  0.0057  0.0108
               ( 47.37%)   0.6883* C  5 s( 39.93%)p 1.50( 60.00%)d 0.00(  0.07%)
                                         0.0000  0.6317  0.0150  0.4171  0.0121
                                         0.2076  0.0001 -0.6187 -0.0057  0.0056
                                        -0.0186 -0.0111  0.0071  0.0124
  19. (1.85160) BD ( 2) C  4- C  5
               ( 56.41%)   0.7511* C  4 s(  0.00%)p 1.00( 99.97%)d 0.00(  0.03%)
                                         0.0000  0.0014 -0.0003 -0.0991 -0.0009
                                        -0.9225  0.0026 -0.3725 -0.0055  0.0047
                                         0.0002 -0.0113 -0.0045 -0.0093
               ( 43.59%)   0.6602* C  5 s(  0.00%)p 1.00( 99.92%)d 0.00(  0.08%)
                                         0.0000  0.0011  0.0021 -0.0977  0.0025
                                        -0.9219  0.0084 -0.3738 -0.0003 -0.0152
                                        -0.0039  0.0175  0.0052  0.0144
  20. (1.97898) BD ( 1) C  4- C  6
               ( 51.29%)   0.7162* C  4 s( 30.52%)p 2.28( 69.43%)d 0.00(  0.05%)
                                         0.0000  0.5524 -0.0012  0.8292 -0.0075
                                        -0.0745 -0.0005 -0.0340  0.0045 -0.0041
                                        -0.0009 -0.0022  0.0203 -0.0091
               ( 48.71%)   0.6979* C  6 s( 53.05%)p 0.88( 46.92%)d 0.00(  0.04%)
                                         0.0000  0.7278  0.0283 -0.6813  0.0189
                                         0.0659 -0.0028  0.0161  0.0021 -0.0038
                                         0.0008 -0.0004  0.0163 -0.0092
  21. (1.97926) BD ( 1) C  5- H 11
               ( 61.80%)   0.7862* C  5 s( 29.74%)p 2.36( 70.23%)d 0.00(  0.03%)
                                         0.0000  0.5452 -0.0077 -0.8337  0.0008
                                         0.0803 -0.0064  0.0212  0.0192 -0.0044
                                         0.0030 -0.0010  0.0148 -0.0080
               ( 38.20%)   0.6180* H 11 s( 99.88%)p 0.00(  0.12%)
                                         0.9994 -0.0056  0.0345 -0.0046  0.0027
  22. (1.98370) BD ( 1) C  5- H 12
               ( 61.21%)   0.7824* C  5 s( 30.30%)p 2.30( 69.66%)d 0.00(  0.04%)
                                         0.0000  0.5505 -0.0040  0.3474 -0.0192
                                        -0.3159 -0.0015  0.6897  0.0076 -0.0062
                                         0.0131 -0.0094  0.0023  0.0079
               ( 38.79%)   0.6228* H 12 s( 99.90%)p 0.00(  0.10%)
                                         0.9995 -0.0011 -0.0143  0.0122 -0.0264
  23. (1.99434) BD ( 1) C  6- N  7
               ( 41.62%)   0.6451* C  6 s( 46.66%)p 1.14( 53.27%)d 0.00(  0.07%)
                                         0.0000  0.6821 -0.0363  0.7230  0.0700
                                        -0.0628 -0.0070 -0.0332 -0.0020 -0.0038
                                        -0.0025  0.0000  0.0232 -0.0131
               ( 58.38%)   0.7641* N  7 s( 47.97%)p 1.08( 51.79%)d 0.00(  0.23%)
                                         0.0000  0.6909  0.0495 -0.7158  0.0161
                                         0.0602 -0.0008  0.0415 -0.0008 -0.0069
                                        -0.0045  0.0003  0.0411 -0.0237
  24. (1.98428) BD ( 2) C  6- N  7
               ( 46.56%)   0.6823* C  6 s(  0.02%)p99.99( 99.87%)d 7.09(  0.11%)
                                         0.0000  0.0121 -0.0037 -0.0017  0.0005
                                        -0.3753  0.0106  0.9258 -0.0266 -0.0126
                                         0.0310 -0.0011 -0.0007 -0.0037
               ( 53.44%)   0.7310* N  7 s(  0.00%)p 1.00( 99.73%)d 0.00(  0.27%)
                                         0.0000 -0.0039  0.0004  0.0181  0.0000
                                        -0.3769  0.0057  0.9245 -0.0137  0.0195
                                        -0.0476  0.0032  0.0007  0.0042
  25. (1.95035) BD ( 3) C  6- N  7
               ( 46.70%)   0.6834* C  6 s(  0.00%)p 1.00( 99.90%)d 0.00(  0.10%)
                                         0.0000  0.0005 -0.0013 -0.0976 -0.0013
                                        -0.9217  0.0099 -0.3738  0.0044 -0.0291
                                        -0.0115  0.0040 -0.0050  0.0023
               ( 53.30%)   0.7301* N  7 s(  0.00%)p 1.00( 99.73%)d 0.00(  0.27%)
                                         0.0000  0.0007  0.0016 -0.0983  0.0017
                                        -0.9209  0.0127 -0.3735  0.0050  0.0470
                                         0.0189 -0.0038  0.0094 -0.0016
 ---------------- non-Lewis ----------------------------------------------------
  26. (0.05540) BD*( 1) C  1- C  2
               ( 48.98%)   0.6998* C  1 s( 28.71%)p 2.48( 71.24%)d 0.00(  0.04%)
                                         0.0000 -0.5359  0.0027  0.4709  0.0121
                                         0.2189 -0.0044 -0.6653  0.0059 -0.0055
                                         0.0160  0.0074 -0.0030 -0.0099
               ( 51.02%)  -0.7143* C  2 s( 36.09%)p 1.77( 63.87%)d 0.00(  0.04%)
                                         0.0000 -0.6006  0.0121 -0.4161  0.0294
                                        -0.2166 -0.0054  0.6463  0.0035 -0.0053
                                         0.0157  0.0062 -0.0037 -0.0081
  27. (0.00540) BD*( 1) C  1- H  8
               ( 37.38%)   0.6114* C  1 s( 24.77%)p 3.04( 75.20%)d 0.00(  0.03%)
                                         0.0000 -0.4976 -0.0066  0.4901 -0.0115
                                        -0.3051  0.0014  0.6470  0.0002  0.0066
                                        -0.0136  0.0071 -0.0050 -0.0035
               ( 62.62%)  -0.7913* H  8 s( 99.90%)p 0.00(  0.10%)
                                        -0.9995  0.0013 -0.0178  0.0109 -0.0227
  28. (0.00673) BD*( 1) C  1- H  9
               ( 37.51%)   0.6125* C  1 s( 23.27%)p 3.30( 76.69%)d 0.00(  0.04%)
                                         0.0000 -0.4824  0.0003 -0.4512 -0.0027
                                         0.6895 -0.0049  0.2960  0.0167  0.0134
                                         0.0040 -0.0046  0.0081  0.0100
               ( 62.49%)  -0.7905* H  9 s( 99.90%)p 0.00(  0.10%)
                                        -0.9995  0.0009  0.0173 -0.0230 -0.0135
  29. (0.00664) BD*( 1) C  1- H 10
               ( 37.53%)   0.6126* C  1 s( 23.21%)p 3.31( 76.75%)d 0.00(  0.04%)
                                         0.0000 -0.4817  0.0002 -0.5777 -0.0029
                                        -0.6189 -0.0072 -0.2246  0.0155 -0.0140
                                        -0.0078 -0.0103 -0.0004  0.0044
               ( 62.47%)  -0.7904* H 10 s( 99.90%)p 0.00(  0.10%)
                                        -0.9995  0.0009  0.0216  0.0227  0.0048
  30. (0.01411) BD*( 1) C  2- O  3
               ( 66.57%)   0.8159* C  2 s( 30.84%)p 2.24( 68.97%)d 0.01(  0.19%)
                                         0.0000  0.5544  0.0327 -0.8236 -0.0639
                                         0.0821  0.0115  0.0149 -0.0115 -0.0068
                                        -0.0031  0.0000  0.0373 -0.0215
               ( 33.43%)  -0.5781* O  3 s( 45.49%)p 1.19( 54.32%)d 0.00(  0.18%)
                                         0.0000  0.6742  0.0199  0.7328  0.0188
                                        -0.0763 -0.0015 -0.0062 -0.0010 -0.0074
                                        -0.0004  0.0017  0.0354 -0.0228
  31. (0.13430) BD*( 2) C  2- O  3
               ( 65.25%)   0.8078* C  2 s(  0.00%)p 1.00( 99.73%)d 0.00(  0.27%)
                                         0.0000  0.0002  0.0012  0.0986 -0.0016
                                         0.9212 -0.0215  0.3722 -0.0027 -0.0471
                                        -0.0190  0.0048 -0.0090  0.0022
               ( 34.75%)  -0.5895* O  3 s(  0.00%)p 1.00( 99.83%)d 0.00(  0.17%)
                                         0.0000  0.0001  0.0003  0.0991  0.0018
                                         0.9221  0.0154  0.3713  0.0048  0.0379
                                         0.0155 -0.0017  0.0083 -0.0001
  32. (0.09757) BD*( 1) C  2- C  4
               ( 53.59%)   0.7320* C  2 s( 32.72%)p 2.05( 67.23%)d 0.00(  0.05%)
                                         0.0000  0.5720 -0.0072  0.3670 -0.0130
                                        -0.3081  0.0042  0.6652 -0.0055 -0.0069
                                         0.0151 -0.0108  0.0015  0.0094
               ( 46.41%)  -0.6813* C  4 s( 31.34%)p 2.19( 68.64%)d 0.00(  0.03%)
                                         0.0000  0.5597 -0.0089 -0.3724  0.0045
                                         0.3117 -0.0073 -0.6710  0.0138 -0.0042
                                         0.0074 -0.0102  0.0032  0.0091
  33. (0.01663) BD*( 1) C  4- C  5
               ( 47.37%)   0.6883* C  4 s( 38.09%)p 1.62( 61.88%)d 0.00(  0.04%)
                                         0.0000 -0.6168 -0.0207  0.4041  0.0036
                                         0.2141  0.0069 -0.6397 -0.0185 -0.0025
                                         0.0105  0.0102 -0.0057 -0.0108
               ( 52.63%)  -0.7255* C  5 s( 39.93%)p 1.50( 60.00%)d 0.00(  0.07%)
                                         0.0000 -0.6317 -0.0150 -0.4171 -0.0121
                                        -0.2076 -0.0001  0.6187  0.0057 -0.0056
                                         0.0186  0.0111 -0.0071 -0.0124
  34. (0.06586) BD*( 2) C  4- C  5
               ( 43.59%)   0.6602* C  4 s(  0.00%)p 1.00( 99.97%)d 0.00(  0.03%)
                                         0.0000 -0.0014  0.0003  0.0991  0.0009
                                         0.9225 -0.0026  0.3725  0.0055 -0.0047
                                        -0.0002  0.0113  0.0045  0.0093
               ( 56.41%)  -0.7511* C  5 s(  0.00%)p 1.00( 99.92%)d 0.00(  0.08%)
                                         0.0000 -0.0011 -0.0021  0.0977 -0.0025
                                         0.9219 -0.0084  0.3738  0.0003  0.0152
                                         0.0039 -0.0175 -0.0052 -0.0144
  35. (0.04059) BD*( 1) C  4- C  6
               ( 48.71%)   0.6979* C  4 s( 30.52%)p 2.28( 69.43%)d 0.00(  0.05%)
                                         0.0000 -0.5524  0.0012 -0.8292  0.0075
                                         0.0745  0.0005  0.0340 -0.0045  0.0041
                                         0.0009  0.0022 -0.0203  0.0091
               ( 51.29%)  -0.7162* C  6 s( 53.05%)p 0.88( 46.92%)d 0.00(  0.04%)
                                         0.0000 -0.7278 -0.0283  0.6813 -0.0189
                                        -0.0659  0.0028 -0.0161 -0.0021  0.0038
                                        -0.0008  0.0004 -0.0163  0.0092
  36. (0.01430) BD*( 1) C  5- H 11
               ( 38.20%)   0.6180* C  5 s( 29.74%)p 2.36( 70.23%)d 0.00(  0.03%)
                                         0.0000 -0.5452  0.0077  0.8337 -0.0008
                                        -0.0803  0.0064 -0.0212 -0.0192  0.0044
                                        -0.0030  0.0010 -0.0148  0.0080
               ( 61.80%)  -0.7862* H 11 s( 99.88%)p 0.00(  0.12%)
                                        -0.9994  0.0056 -0.0345  0.0046 -0.0027
  37. (0.00732) BD*( 1) C  5- H 12
               ( 38.79%)   0.6228* C  5 s( 30.30%)p 2.30( 69.66%)d 0.00(  0.04%)
                                         0.0000 -0.5505  0.0040 -0.3474  0.0192
                                         0.3159  0.0015 -0.6897 -0.0076  0.0062
                                        -0.0131  0.0094 -0.0023 -0.0079
               ( 61.21%)  -0.7824* H 12 s( 99.90%)p 0.00(  0.10%)
                                        -0.9995  0.0011  0.0143 -0.0122  0.0264
  38. (0.01129) BD*( 1) C  6- N  7
               ( 58.38%)   0.7641* C  6 s( 46.66%)p 1.14( 53.27%)d 0.00(  0.07%)
                                         0.0000  0.6821 -0.0363  0.7230  0.0700
                                        -0.0628 -0.0070 -0.0332 -0.0020 -0.0038
                                        -0.0025  0.0000  0.0232 -0.0131
               ( 41.62%)  -0.6451* N  7 s( 47.97%)p 1.08( 51.79%)d 0.00(  0.23%)
                                         0.0000  0.6909  0.0495 -0.7158  0.0161
                                         0.0602 -0.0008  0.0415 -0.0008 -0.0069
                                        -0.0045  0.0003  0.0411 -0.0237
  39. (0.03205) BD*( 2) C  6- N  7
               ( 53.44%)   0.7310* C  6 s(  0.02%)p99.99( 99.87%)d 7.09(  0.11%)
                                         0.0000  0.0121 -0.0037 -0.0017  0.0005
                                        -0.3753  0.0106  0.9258 -0.0266 -0.0126
                                         0.0310 -0.0011 -0.0007 -0.0037
               ( 46.56%)  -0.6823* N  7 s(  0.00%)p 1.00( 99.73%)d 0.00(  0.27%)
                                         0.0000 -0.0039  0.0004  0.0181  0.0000
                                        -0.3769  0.0057  0.9245 -0.0137  0.0195
                                        -0.0476  0.0032  0.0007  0.0042
  40. (0.07248) BD*( 3) C  6- N  7
               ( 53.30%)   0.7301* C  6 s(  0.00%)p 1.00( 99.90%)d 0.00(  0.10%)
                                         0.0000 -0.0005  0.0013  0.0976  0.0013
                                         0.9217 -0.0099  0.3738 -0.0044  0.0291
                                         0.0115 -0.0040  0.0050 -0.0023
               ( 46.70%)  -0.6834* N  7 s(  0.00%)p 1.00( 99.73%)d 0.00(  0.27%)
                                         0.0000 -0.0007 -0.0016  0.0983 -0.0017
                                         0.9209 -0.0127  0.3735 -0.0050 -0.0470
                                        -0.0189  0.0038 -0.0094  0.0016
  41. (0.00207) RY ( 1) C  1            s(  0.82%)p99.99( 95.42%)d 4.57(  3.76%)
                                         0.0000  0.0101  0.0902  0.0084  0.7751
                                        -0.0077 -0.3303  0.0168  0.4939 -0.0257
                                         0.1089 -0.0899 -0.0605  0.1154
  42. (0.00167) RY ( 2) C  1            s( 43.88%)p 1.15( 50.57%)d 0.13(  5.55%)
                                         0.0000  0.0110  0.6623  0.0093 -0.4318
                                        -0.0005 -0.1207 -0.0007  0.5519 -0.0340
                                        -0.0528  0.0742  0.1614 -0.1414
  43. (0.00052) RY ( 3) C  1            s(  0.09%)p99.99( 66.74%)d99.99( 33.17%)
                                         0.0000  0.0003  0.0295 -0.0009 -0.1288
                                        -0.0047 -0.7510 -0.0021 -0.2948  0.4182
                                         0.1074 -0.2702 -0.0073 -0.2688
  44. (0.00013) RY ( 4) C  1            s( 33.56%)p 1.23( 41.33%)d 0.75( 25.11%)
                                         0.0000 -0.0125  0.5791 -0.0125  0.3544
                                        -0.0048  0.1766  0.0161 -0.5060 -0.1631
                                         0.2988  0.1105  0.1896 -0.2952
  45. (0.00005) RY ( 5) C  1            s( 17.13%)p 0.30(  5.17%)d 4.54( 77.70%)
  46. (0.00002) RY ( 6) C  1            s(  3.04%)p 2.56(  7.77%)d29.38( 89.20%)
  47. (0.00001) RY ( 7) C  1            s(  0.00%)p 1.00(  0.32%)d99.99( 99.68%)
  48. (0.00000) RY ( 8) C  1            s(  1.51%)p 0.12(  0.18%)d64.98( 98.30%)
  49. (0.00000) RY ( 9) C  1            s(  0.01%)p99.99( 32.61%)d99.99( 67.37%)
  50. (0.01948) RY ( 1) C  2            s( 12.74%)p 6.84( 87.17%)d 0.01(  0.09%)
                                         0.0000 -0.0572  0.3523  0.0438 -0.9205
                                        -0.0082  0.0429  0.0072  0.1432 -0.0014
                                         0.0101 -0.0145 -0.0095  0.0222
  51. (0.00677) RY ( 2) C  2            s(  0.78%)p67.85( 52.85%)d59.53( 46.37%)
                                         0.0000  0.0189  0.0862 -0.0083  0.1315
                                         0.0052 -0.2565 -0.0163  0.6671 -0.2273
                                         0.6378 -0.0657 -0.0297 -0.0099
  52. (0.00305) RY ( 3) C  2            s(  0.02%)p99.99( 48.08%)d99.99( 51.90%)
                                         0.0000 -0.0019  0.0134 -0.0031 -0.0778
                                        -0.0444 -0.5793 -0.0227 -0.3696 -0.7009
                                        -0.0847  0.0342 -0.1381  0.0183
  53. (0.00248) RY ( 4) C  2            s(  7.27%)p 6.50( 47.26%)d 6.26( 45.48%)
                                         0.0000 -0.0102  0.2694  0.0150  0.0407
                                         0.0188  0.3800 -0.0109 -0.5708 -0.0983
                                         0.6630 -0.0654  0.0034 -0.0359
  54. (0.00102) RY ( 5) C  2            s( 77.11%)p 0.16( 12.67%)d 0.13( 10.22%)
                                         0.0000  0.0127  0.8781  0.0198  0.3378
                                        -0.0064 -0.0941 -0.0023  0.0571  0.0325
                                        -0.2627  0.0322  0.1539  0.0861
  55. (0.00071) RY ( 6) C  2            s(  0.06%)p 4.93(  0.28%)d99.99( 99.66%)
                                         0.0000  0.0132  0.0199 -0.0374  0.0305
                                         0.0053 -0.0053 -0.0013 -0.0207  0.1221
                                         0.0052 -0.3337 -0.5434  0.7583
  56. (0.00051) RY ( 7) C  2            s(  0.79%)p 0.18(  0.14%)d99.99( 99.07%)
                                         0.0000  0.0014  0.0890  0.0014  0.0354
                                         0.0004 -0.0046  0.0000  0.0112  0.0264
                                        -0.1235 -0.7320 -0.3370 -0.5704
  57. (0.00002) RY ( 8) C  2            s(  1.52%)p 0.85(  1.29%)d63.99( 97.19%)
  58. (0.00000) RY ( 9) C  2            s(  0.06%)p99.99( 50.47%)d99.99( 49.47%)
  59. (0.00265) RY ( 1) O  3            s(  0.18%)p99.99( 96.52%)d17.82(  3.29%)
                                         0.0000  0.0006  0.0430 -0.0008 -0.0310
                                        -0.0024 -0.3954  0.0113  0.8988 -0.0695
                                         0.1659 -0.0225 -0.0073 -0.0001
  60. (0.00029) RY ( 2) O  3            s(  0.98%)p96.32( 94.49%)d 4.62(  4.53%)
                                         0.0000 -0.0009  0.0990 -0.0052  0.1222
                                        -0.0222  0.8843 -0.0087  0.3840  0.1738
                                         0.1033  0.0262  0.0558  0.0245
  61. (0.00015) RY ( 3) O  3            s( 77.83%)p 0.28( 21.50%)d 0.01(  0.67%)
                                         0.0000 -0.0119  0.8821 -0.0277  0.4398
                                         0.0035 -0.1188  0.0046 -0.0816 -0.0337
                                         0.0037  0.0358  0.0236 -0.0612
  62. (0.00011) RY ( 4) O  3            s( 19.21%)p 3.23( 62.02%)d 0.98( 18.77%)
                                         0.0000  0.0158  0.4380  0.0147 -0.7847
                                        -0.0031  0.0641  0.0052  0.0049  0.0851
                                        -0.1264 -0.1372 -0.2135  0.3164
  63. (0.00001) RY ( 5) O  3            s(  1.21%)p 8.84( 10.66%)d73.07( 88.14%)
  64. (0.00001) RY ( 6) O  3            s(  0.50%)p15.97(  7.96%)d99.99( 91.54%)
  65. (0.00001) RY ( 7) O  3            s(  0.06%)p36.19(  2.10%)d99.99( 97.85%)
  66. (0.00000) RY ( 8) O  3            s(  0.02%)p99.99(  2.20%)d99.99( 97.78%)
  67. (0.00000) RY ( 9) O  3            s(  0.01%)p 1.00(  3.07%)d31.62( 96.93%)
  68. (0.00583) RY ( 1) C  4            s( 14.24%)p 5.90( 84.09%)d 0.12(  1.67%)
                                         0.0000  0.0078  0.3773  0.0069  0.8437
                                         0.0014  0.0587 -0.0017 -0.3544  0.0075
                                         0.0023 -0.0698 -0.0379  0.1014
  69. (0.00307) RY ( 2) C  4            s( 33.83%)p 1.62( 54.69%)d 0.34( 11.48%)
                                         0.0000  0.0063  0.5816 -0.0118 -0.4568
                                         0.0099  0.2239 -0.0120 -0.5364 -0.0088
                                        -0.0910  0.1048  0.2297 -0.2067
  70. (0.00151) RY ( 3) C  4            s( 47.75%)p 0.85( 40.61%)d 0.24( 11.64%)
                                         0.0000 -0.0194  0.6907  0.0115 -0.0560
                                         0.0001 -0.1419 -0.0123  0.6185 -0.0709
                                         0.3093 -0.0900 -0.0716  0.0495
  71. (0.00113) RY ( 4) C  4            s(  0.27%)p99.99( 71.33%)d99.99( 28.40%)
                                         0.0000 -0.0024  0.0522  0.0020 -0.0710
                                        -0.0078 -0.8073 -0.0029 -0.2377 -0.3793
                                        -0.0694  0.2646  0.0250  0.2543
  72. (0.00046) RY ( 5) C  4            s(  3.12%)p 2.90(  9.03%)d28.19( 87.86%)
                                         0.0000 -0.0086  0.1763  0.0050  0.0497
                                         0.0041 -0.1300 -0.0161  0.2657  0.3609
                                        -0.8584  0.1001  0.0362  0.0099
  73. (0.00035) RY ( 6) C  4            s(  0.00%)p 1.00(  3.83%)d25.13( 96.17%)
                                         0.0000  0.0010  0.0005  0.0030 -0.0596
                                        -0.0032 -0.1548 -0.0013 -0.1036  0.7716
                                         0.3517  0.2248  0.2046  0.3877
  74. (0.00029) RY ( 7) C  4            s(  0.62%)p19.36( 11.97%)d99.99( 87.41%)
                                         0.0000  0.0045  0.0785  0.0163 -0.2474
                                         0.0017  0.1714 -0.0034 -0.1698 -0.0135
                                        -0.1372 -0.3203 -0.5919  0.6342
  75. (0.00003) RY ( 8) C  4            s(  0.00%)p 1.00( 23.80%)d 3.20( 76.19%)
  76. (0.00002) RY ( 9) C  4            s(  0.24%)p 3.07(  0.72%)d99.99( 99.04%)
  77. (0.00586) RY ( 1) C  5            s(  0.03%)p99.99( 96.46%)d99.99(  3.51%)
                                         0.0000 -0.0053  0.0164  0.0144  0.7639
                                        -0.0070 -0.2971  0.0114  0.5408  0.0008
                                        -0.0516  0.0594  0.1112 -0.1284
  78. (0.00118) RY ( 2) C  5            s( 34.33%)p 1.86( 63.97%)d 0.05(  1.71%)
                                         0.0000  0.0058  0.5859 -0.0147  0.4618
                                        -0.0046  0.1271  0.0257 -0.6398  0.0001
                                        -0.0659  0.0106  0.1025 -0.0459
  79. (0.00055) RY ( 3) C  5            s(  0.04%)p99.99( 95.99%)d99.99(  3.97%)
                                         0.0000  0.0007  0.0192  0.0008  0.1377
                                         0.0016  0.9216  0.0031  0.3027  0.1507
                                         0.0171 -0.0951 -0.0022 -0.0877
  80. (0.00025) RY ( 4) C  5            s( 52.30%)p 0.51( 26.88%)d 0.40( 20.82%)
                                         0.0000 -0.0103  0.7231  0.0014 -0.3220
                                         0.0036 -0.0892 -0.0106  0.3963 -0.1764
                                         0.3761 -0.1145  0.1478 -0.0252
  81. (0.00004) RY ( 5) C  5            s(  0.59%)p12.27(  7.26%)d99.99( 92.14%)
  82. (0.00002) RY ( 6) C  5            s(  4.17%)p 0.84(  3.50%)d22.16( 92.34%)
  83. (0.00002) RY ( 7) C  5            s(  0.02%)p 9.34(  0.18%)d99.99( 99.80%)
  84. (0.00000) RY ( 8) C  5            s(  8.54%)p 0.25(  2.13%)d10.47( 89.34%)
  85. (0.00000) RY ( 9) C  5            s(  0.02%)p99.99(  3.83%)d99.99( 96.15%)
  86. (0.01805) RY ( 1) C  6            s( 10.97%)p 8.10( 88.87%)d 0.01(  0.15%)
                                         0.0000  0.0587  0.3260  0.0508 -0.9361
                                        -0.0039  0.0722  0.0011  0.0676  0.0007
                                        -0.0144  0.0040  0.0293 -0.0216
  87. (0.00484) RY ( 2) C  6            s( 17.14%)p 4.30( 73.64%)d 0.54(  9.22%)
                                         0.0000 -0.0019  0.4140  0.0146  0.1096
                                         0.0112  0.3476 -0.0310 -0.7760 -0.1272
                                         0.2703 -0.0103 -0.0532 -0.0027
  88. (0.00223) RY ( 3) C  6            s( 70.93%)p 0.38( 26.92%)d 0.03(  2.15%)
                                         0.0000 -0.0134  0.8421  0.0276  0.3059
                                        -0.0107 -0.1790  0.0158  0.3774  0.0483
                                        -0.0926  0.0466 -0.0904  0.0163
  89. (0.00182) RY ( 4) C  6            s(  0.08%)p99.99( 41.81%)d99.99( 58.11%)
                                         0.0000 -0.0005  0.0279 -0.0023 -0.0546
                                        -0.0283 -0.5849 -0.0134 -0.2684  0.6834
                                         0.3016 -0.0862  0.1161 -0.0476
  90. (0.00015) RY ( 5) C  6            s(  0.04%)p99.99(  7.41%)d99.99( 92.55%)
                                         0.0000  0.0195 -0.0062  0.0018 -0.0231
                                        -0.0076  0.0710  0.0185 -0.2610  0.3620
                                        -0.7191 -0.0104 -0.3734  0.3711
  91. (0.00006) RY ( 6) C  6            s(  0.00%)p 1.00( 56.80%)d 0.76( 43.20%)
  92. (0.00005) RY ( 7) C  6            s(  0.75%)p 4.49(  3.36%)d99.99( 95.89%)
  93. (0.00001) RY ( 8) C  6            s(  0.00%)p 1.00(  1.12%)d88.31( 98.88%)
  94. (0.00000) RY ( 9) C  6            s(  0.36%)p 0.33(  0.12%)d99.99( 99.52%)
  95. (0.00096) RY ( 1) N  7            s( 83.80%)p 0.19( 15.72%)d 0.01(  0.48%)
                                         0.0000 -0.0271  0.9150  0.0502  0.3901
                                        -0.0019  0.0239 -0.0024 -0.0441 -0.0132
                                         0.0070 -0.0028  0.0597 -0.0311
  96. (0.00032) RY ( 2) N  7            s(  0.11%)p99.99( 99.28%)d 5.75(  0.61%)
                                         0.0000 -0.0012  0.0326 -0.0006 -0.0704
                                        -0.0162 -0.8976 -0.0069 -0.4264 -0.0742
                                        -0.0201  0.0107 -0.0074  0.0041
  97. (0.00014) RY ( 3) N  7            s( 13.71%)p 5.44( 74.52%)d 0.86( 11.77%)
                                         0.0000  0.0270  0.3693  0.0097 -0.8336
                                         0.0008  0.1542 -0.0038 -0.1625  0.0550
                                         0.0219 -0.0011 -0.2918  0.1703
  98. (0.00009) RY ( 4) N  7            s(  1.57%)p61.16( 95.77%)d 1.70(  2.66%)
  99. (0.00000) RY ( 5) N  7            s(  0.65%)p17.69( 11.52%)d99.99( 87.83%)
 100. (0.00000) RY ( 6) N  7            s(  0.00%)p 1.00(  0.86%)d99.99( 99.14%)
 101. (0.00000) RY ( 7) N  7            s(  0.00%)p 1.00(  3.27%)d29.54( 96.72%)
 102. (0.00000) RY ( 8) N  7            s(  0.00%)p 0.00(  0.00%)d 1.00(100.00%)
 103. (0.00000) RY ( 9) N  7            s(  0.00%)p 1.00(  0.02%)d99.99( 99.98%)
 104. (0.00275) RY ( 1) H  8            s( 99.07%)p 0.01(  0.93%)
                                         0.0043  0.9953 -0.0505  0.0349 -0.0745
 105. (0.00014) RY ( 2) H  8            s(  0.03%)p99.99( 99.97%)
                                        -0.0068  0.0154  0.9210  0.0814 -0.3805
 106. (0.00010) RY ( 3) H  8            s(  0.00%)p 1.00(100.00%)
                                        -0.0007  0.0020 -0.0676 -0.9295 -0.3624
 107. (0.00003) RY ( 4) H  8            s(  1.00%)p99.27( 99.00%)
 108. (0.00117) RY ( 1) H  9            s( 96.47%)p 0.04(  3.53%)
                                         0.0060  0.9822  0.1667 -0.0626 -0.0602
 109. (0.00019) RY ( 2) H  9            s(  0.69%)p99.99( 99.31%)
                                         0.0028  0.0831 -0.7645 -0.6305 -0.1054
 110. (0.00014) RY ( 3) H  9            s(  0.05%)p99.99( 99.95%)
                                        -0.0039  0.0231 -0.2654  0.4659 -0.8438
 111. (0.00002) RY ( 4) H  9            s(  2.89%)p33.63( 97.11%)
 112. (0.00117) RY ( 1) H 10            s( 96.46%)p 0.04(  3.54%)
                                         0.0060  0.9821  0.1790  0.0579 -0.0072
 113. (0.00019) RY ( 2) H 10            s(  0.62%)p99.99( 99.38%)
                                         0.0031  0.0789 -0.6112  0.6128  0.4946
 114. (0.00014) RY ( 3) H 10            s(  0.13%)p99.99( 99.87%)
                                        -0.0037  0.0363 -0.3475  0.3502 -0.8691
 115. (0.00002) RY ( 4) H 10            s(  2.89%)p33.61( 97.11%)
 116. (0.00393) RY ( 1) H 11            s( 97.49%)p 0.03(  2.51%)
                                         0.0096  0.9873 -0.1033  0.0552 -0.1066
 117. (0.00017) RY ( 2) H 11            s(  0.00%)p 1.00(100.00%)
                                        -0.0007  0.0062  0.1086  0.9016  0.4186
 118. (0.00010) RY ( 3) H 11            s(  1.85%)p52.93( 98.15%)
                                        -0.0092  0.1359  0.1621 -0.4283  0.8785
 119. (0.00006) RY ( 4) H 11            s(  0.77%)p99.99( 99.23%)
 120. (0.00114) RY ( 1) H 12            s( 94.80%)p 0.05(  5.20%)
                                         0.0084  0.9736  0.1123 -0.0631  0.1882
 121. (0.00021) RY ( 2) H 12            s(  0.03%)p99.99( 99.97%)
                                         0.0008  0.0173 -0.0718 -0.9307 -0.3583
 122. (0.00009) RY ( 3) H 12            s(  0.47%)p99.99( 99.53%)
 123. (0.00003) RY ( 4) H 12            s(  4.81%)p19.80( 95.19%)


 NHO DIRECTIONALITY AND BOND BENDING (deviation from line of nuclear centers at
                                      the position of maximum hybrid amplitude)

         [Thresholds for printing:  angular deviation  >  1.0 degree]
                                    p- or d-character  > 25.0%
                                    orbital occupancy  >  0.10e

                        Line of Centers        Hybrid 1             Hybrid 2
                        ---------------  -------------------  ------------------
           NBO            Theta   Phi    Theta   Phi    Dev   Theta   Phi    Dev
 ===============================================================================
   8. LP ( 1) O  3          --     --     88.4  174.5   --      --     --    --
   9. LP ( 2) O  3          --     --    158.2   84.3   --      --     --    --
  10. LP ( 1) N  7          --     --     92.8  355.1   --      --     --    --
  11. BD ( 1) C  1- C  2   38.2  204.6     --     --    --    144.5   27.8   3.3
[...]
  8 H                 0.0      -0.2      -0.0      57.0       0.0      -0.0
  9 H                 0.0      -0.2      -0.0       0.0      57.0      -0.0
 10 H                 0.0       0.2      -0.0      -0.0      -0.0       0.3

                     30        31        32        33        34        35   
                   0.00000   0.00000   0.00000   0.00000   0.00000   0.00000
                   0.13430   0.09757   0.01663   0.06586   0.04059   0.01430
                  --------  --------  --------  --------  --------  --------
  0 C                 0.0       1.6      -0.3      -0.1       0.2       0.0
  1 C                64.7      49.0       2.3      -0.1       4.9       0.3
  2 O                35.2       0.8       0.2       0.0      -0.5      -0.0
  3 C                 0.3      45.3      51.0      45.4      44.4       2.4
  4 C                -0.1       2.1      46.4      54.8       4.0      43.4
  5 C                -0.1       1.6       1.4      -0.2      46.8      -1.7
  6 N                -0.0       0.3      -0.1      -0.0       0.9      -0.1
  7 H                 0.0      -0.2       0.0      -0.0      -0.0      -0.0
  8 H                -0.0      -0.0      -0.1       0.0       0.0      -0.0
  9 H                -0.1      -0.0      -0.1       0.0       0.0      -0.0
 10 H                 0.0       0.1      -0.3       0.1      -0.8      55.4
 11 H                -0.0      -0.6      -0.4       0.1       0.1       0.2

                     36        37        38        39        40        41   
                   0.00000   0.00000   0.00000   0.00000   0.00000   0.00000
                   0.00732   0.01129   0.03205   0.07248   0.00207   0.00167
                  --------  --------  --------  --------  --------  --------
  0 C                 0.0       0.2       0.8       0.0     143.5     247.2
  1 C                -1.2       0.9      -1.8      -0.1     -10.9    -125.5
  2 O                -0.0       0.0      -0.0      -0.0      -0.5      -3.9
  3 C                 2.1      -1.9       4.6       0.4       2.1       5.0
  4 C                43.8       0.4      -0.9      -0.1      -0.3       0.0
  5 C                 0.2      39.0      50.7      52.8      -7.8     -12.6
  6 N                 0.0      61.3      46.3      46.9       0.0      -0.5
  7 H                -0.0      -0.0       0.0      -0.0     -14.9      -4.1
  8 H                 0.0       0.1      -0.0       0.0      -6.3      -2.0
  9 H                 0.0       0.1      -0.0       0.0      -4.9      -3.3
 10 H                 0.2      -0.0       0.0      -0.0      -0.0      -0.3
 11 H                54.8       0.0       0.2       0.0      -0.0      -0.1

                     42        43        44        45        46        47   
                   0.00000   0.00000   0.00000   0.00000   0.00000   0.00000
                   0.00052   0.00013   0.00005   0.00002   0.00001   0.00000
                  --------  --------  --------  --------  --------  --------
  0 C               123.7     145.1     130.0     114.5     110.7     111.4
  1 C                -4.9      -0.5      -9.0      -2.3       0.0      -3.0
  2 O                -0.1       0.1      -0.3       0.0      -0.0      -0.1
  3 C                -0.0      -1.4      -1.2      -0.3      -0.0      -0.4
  5 C                -0.1       0.3      -0.3       0.4       0.0      -0.3
  7 H                -1.2     -15.8     -10.2      -7.9      -2.4      -2.0
  8 H                -8.7     -13.7      -5.0      -2.6      -3.7      -2.8
  9 H                -8.7     -14.1      -4.0      -1.8      -4.6      -2.8

                     48        49        50        51        52        53   
                   0.00000   0.00000   0.00000   0.00000   0.00000   0.00000
                   0.00000   0.01948   0.00677   0.00305   0.00248   0.00102
                  --------  --------  --------  --------  --------  --------
  0 C               120.2      -5.7     -22.6      -3.6     -61.9     -60.6
  1 C                -4.3     169.5     174.4     113.7     184.9     264.4
  2 O                -0.2     -37.4     -13.5      -6.2      -7.4       0.3
  3 C                -0.0     -29.2     -32.9      -3.6     -10.4    -105.7
  4 C                 0.0       2.1       4.1      -0.1      -1.2      -5.1
  5 C                -0.1       2.6      -9.1      -0.0      -3.8       7.8
  6 N                -0.0      -0.1      -0.8      -0.0      -0.2      -0.1
  7 H                 0.4      -0.2       1.1      -0.0       0.5      -0.4
  8 H                -7.6       0.1      -0.2      -0.1       0.0      -0.4
  9 H                -8.4       0.1      -0.2      -0.1       0.1      -0.2
 10 H                -0.0      -1.7      -0.5      -0.0      -0.5      -0.5
 11 H                -0.0      -0.0       0.1      -0.0      -0.1       0.3

                     54        55        56        57        58        59   
                   0.00000   0.00000   0.00000   0.00000   0.00000   0.00000
                   0.00071   0.00051   0.00002   0.00000   0.00265   0.00029
                  --------  --------  --------  --------  --------  --------
  0 C                -0.9      -1.3      -2.2      -5.7      -0.2      -0.3
  1 C               103.4     103.6     106.6     111.6     -19.0      -5.0
  2 O                 0.1      -0.1      -0.3      -0.8     119.5     105.8
  3 C                -3.5      -1.9      -3.4      -5.5       1.4      -0.2
  4 C                 0.3      -0.1      -0.2       0.1      -0.7      -0.1
  5 C                 0.9       0.1      -0.2       0.0      -0.1       0.0
  6 N                 0.0      -0.0      -0.1      -0.0      -0.0      -0.0
  7 H                -0.2      -0.1      -0.1      -0.1      -0.4      -0.0
  8 H                -0.0       0.0      -0.0       0.2      -0.0      -0.0
  9 H                -0.0      -0.2      -0.0       0.2      -0.0      -0.0
 10 H                -0.1      -0.0      -0.0      -0.0      -0.4      -0.0

                     60        61        62        63        64        65   
                   0.00000   0.00000   0.00000   0.00000   0.00000   0.00000
                   0.00015   0.00011   0.00001   0.00001   0.00001   0.00000
                  --------  --------  --------  --------  --------  --------
  0 C                -3.9       0.3      -0.1      -0.5      -0.1      -0.2
  1 C               -25.0      -3.1      -3.7      -1.9      -0.7      -1.3
  2 O               133.3     104.7     104.0     102.4     100.8     101.7
  3 C                -2.5      -1.6      -0.1       0.1      -0.0      -0.2
  4 C                -1.1       0.1      -0.0      -0.0      -0.0      -0.0
  5 C                 0.2      -0.3      -0.0      -0.0      -0.0      -0.0
  6 N                -0.2      -0.0      -0.0      -0.0      -0.0      -0.0
  7 H                -0.3      -0.0      -0.0      -0.0      -0.0       0.0
  8 H                -0.2      -0.0       0.0      -0.0      -0.0      -0.0
  9 H                -0.2      -0.0       0.0      -0.0      -0.0      -0.0

                     66        67        68        69        70        71   
                   0.00000   0.00000   0.00000   0.00000   0.00000   0.00000
                   0.00000   0.00583   0.00307   0.00151   0.00113   0.00046
                  --------  --------  --------  --------  --------  --------
  0 C                -0.0       9.6      -2.4      -2.1      -0.1       0.2
  1 C                -2.6     -43.7    -120.6      -2.2      -5.4      -1.2
  2 O               102.7      -1.4      -0.7      -0.8      -0.2      -0.5
  3 C                -0.1     383.2     260.6     308.1     122.2     120.2
  4 C                -0.0     -27.5     -29.5    -134.1      -9.0      -7.5
  5 C                -0.0    -196.6      -7.5     -64.4      -7.0     -10.6
  6 N                -0.0     -23.9      -0.9      -6.6      -0.4      -0.9
  7 H                -0.0      -0.1      -0.0      -0.1      -0.0      -0.0
  8 H                -0.0      -0.4      -0.2       0.0      -0.1       0.0
  9 H                -0.0      -0.4      -0.2      -0.0      -0.0       0.0
 10 H                -0.0       1.7       1.5      -1.0      -0.1      -0.3
 11 H                -0.0      -0.5       0.0       3.0       0.0       0.6

                     72        73        74        75        76        77   
                   0.00000   0.00000   0.00000   0.00000   0.00000   0.00000
                   0.00035   0.00029   0.00003   0.00002   0.00586   0.00118
                  --------  --------  --------  --------  --------  --------
  0 C                -0.0      -0.9      -0.0       0.1      -0.0      -0.1
  1 C                -0.5      -8.8      -3.3      -1.0       1.7      -2.4
  2 O                 0.0       0.3      -0.2      -0.0      -0.3      -1.0
  3 C               103.4     113.0     110.2     101.9     -38.5    -124.1
  4 C                -0.6      -5.2      -3.2       0.1     176.2     249.9
  5 C                -2.2       0.3      -3.2      -0.7       2.9     -19.0
  6 N                -0.1       0.8      -0.2      -0.1      -0.2      -0.9
  7 H                -0.0       0.0      -0.0      -0.0      -0.0      -0.1
 10 H                 0.0       0.2       0.0      -0.1     -17.0      -0.9
 11 H                -0.0       0.2       0.0      -0.1     -24.9      -1.2

                     78        79        80        81        82        83   
                   0.00000   0.00000   0.00000   0.00000   0.00000   0.00000
                   0.00055   0.00025   0.00004   0.00002   0.00002   0.00000
                  --------  --------  --------  --------  --------  --------
  0 C                 0.0      -0.0      -0.1       0.0      -0.0      -0.1
  1 C                 0.1      -0.1       0.1      -0.2      -0.0      -0.2
  2 O                -0.1      -0.1      -0.0      -0.0      -0.0      -0.1
  3 C                -7.3     -21.2     -10.4      -4.4      -0.2      -5.0
  4 C               108.2     168.1     123.3     110.3     105.3     119.0
  5 C                -0.1      -0.2       3.3       0.2      -0.0      -0.7
  6 N                -0.0      -0.1       0.1      -0.0      -0.0      -0.2
 10 H                -0.6     -25.0      -9.4      -2.5      -2.2      -7.2
 11 H                -0.3     -21.3      -6.9      -3.5      -2.9      -5.6

                     84        85        86        87        88        89   
                   0.00000   0.00000   0.00000   0.00000   0.00000   0.00000
                   0.00000   0.01805   0.00484   0.00223   0.00182   0.00015
                  --------  --------  --------  --------  --------  --------
  0 C                -0.0      -0.8       1.0     -18.7       0.0      -1.1
  1 C                -0.0      -3.5      -3.5       4.0      -0.0       1.4
  2 O                -0.0      -0.2      -0.1       0.0      -0.0       0.0
  3 C                -3.6     -21.4     -46.5    -186.2      -4.0      -9.2
  4 C               104.7      -2.2      -2.3      -9.7      -0.0       1.5
  5 C                -0.0     304.3     158.6     304.6     111.4     112.8
  6 N                -0.0    -175.0      -4.1       6.5      -7.1      -5.0
  8 H                -0.0      -0.6      -0.3      -0.1      -0.2      -0.1
  9 H                -0.0      -0.5      -0.3       0.0      -0.1      -0.1
 10 H                -0.7       0.0       0.1       0.4       0.0      -0.0
 11 H                -0.3      -0.0      -2.8      -0.9      -0.0      -0.2

                     90        91        92        93        94        95   
                   0.00000   0.00000   0.00000   0.00000   0.00000   0.00000
                   0.00006   0.00005   0.00001   0.00000   0.00096   0.00032
                  --------  --------  --------  --------  --------  --------
  0 C                -0.1       0.4       0.0      -0.3      -0.7      -0.0
  1 C                 0.1      -0.3      -0.0      -0.1      -1.4      -0.0
  2 O                -0.0      -0.0      -0.0      -0.0      -0.2      -0.0
  3 C                -8.2      -7.9      -0.3      -0.4     -40.2      -0.6
  4 C                 0.1       0.9       0.0      -0.3      -1.2      -0.0
  5 C               113.8     113.2     100.8     101.5    -132.5      -9.5
  6 N                -5.5      -5.8      -0.5      -0.4     276.2     110.2
 11 H                -0.0      -0.4      -0.0      -0.0      -0.1      -0.0

                     96        97        98        99       100       101   
                   0.00000   0.00000   0.00000   0.00000   0.00000   0.00000
                   0.00014   0.00009   0.00000   0.00000   0.00000   0.00000
                  --------  --------  --------  --------  --------  --------
  3 C                 3.5      -1.1      -0.0      -0.1      -0.4      -0.0
  5 C                -4.6     -12.9      -1.9      -4.2      -3.8      -0.3
  6 N               101.1     114.1     101.9     104.2     104.3     100.3

                    102       103       104       105       106       107   
                   0.00000   0.00000   0.00000   0.00000   0.00000   0.00000
                   0.00000   0.00275   0.00014   0.00010   0.00003   0.00117
                  --------  --------  --------  --------  --------  --------
  0 C                -0.0     -39.8      -2.8      -2.9      -8.1     -33.8
  1 C                -0.0       1.2      -0.7      -0.1      -0.3      -0.2
  2 O                 0.0      -0.3      -0.3      -0.0      -0.0      -0.0
  3 C                -0.0      -0.1      -0.1      -0.0      -0.0      -0.7
  4 C                -0.0      -0.1      -0.0      -0.0      -0.0       0.0
  5 C                -0.4      -0.0      -0.0      -0.0      -0.0      -1.2
  6 N               100.4       0.0      -0.0      -0.0      -0.0       0.1
  7 H                -0.0     139.7     104.5     103.8     108.6      -0.3
  8 H                -0.0      -0.3      -0.3      -0.3      -0.1     136.2
  9 H                -0.0      -0.3      -0.3      -0.3      -0.1      -0.1

                    108       109       110       111       112       113   
                   0.00000   0.00000   0.00000   0.00000   0.00000   0.00000
                   0.00019   0.00014   0.00002   0.00117   0.00019   0.00014
                  --------  --------  --------  --------  --------  --------
  0 C                -3.0      -3.3      -8.0     -33.9      -3.1      -3.2
  1 C                -0.4      -0.1      -0.1      -0.2      -0.3      -0.1
  2 O                -0.3      -0.0      -0.0      -0.0      -0.3      -0.0
  3 C                 0.0      -0.0      -0.0      -0.7       0.0      -0.0
  5 C                -0.0      -0.0      -0.1      -1.1      -0.0      -0.0
  7 H                -0.1      -0.4      -0.1      -0.3      -0.1      -0.4
  8 H               104.3     104.3     108.5      -0.1      -0.6      -0.4
  9 H                -0.6      -0.4      -0.1     136.1     104.3     104.3

                    114       115       116       117       118       119   
                   0.00000   0.00000   0.00000   0.00000   0.00000   0.00000
                   0.00002   0.00393   0.00017   0.00010   0.00006   0.00114
                  --------  --------  --------  --------  --------  --------
  0 C                -8.0      -0.3      -0.0      -0.0       0.0      -0.1
  1 C                -0.1      -3.4      -0.0      -0.0      -0.0       0.5
  2 O                -0.0      -0.5      -0.0      -0.1      -0.1      -0.0
  3 C                -0.0       3.4      -0.1      -1.0      -0.3       3.1
  4 C                -0.0     -49.1      -3.3      -3.0      -8.3     -47.7
  5 C                -0.1       0.9      -0.0       0.0      -0.0      -4.6
  8 H                -0.1       0.0      -0.0       0.0      -0.0      -0.0
  9 H               108.4       0.0      -0.0      -0.0      -0.0      -0.0
 10 H                -0.0     150.6     103.5     104.5     108.7      -1.5
 11 H                -0.0      -1.7      -0.1      -0.5       0.0     150.2

                    120       121       122   
                   0.00000   0.00000   0.00000
                   0.00021   0.00009   0.00003
                  --------  --------  --------
  3 C                -0.1      -0.4       0.2
  4 C                -3.2      -3.1      -9.5
  5 C                -0.0      -0.1      -0.2
 10 H                -0.1      -0.6      -0.1
 11 H               103.4     104.2     109.7

Storing NBOs: 5472.nbo
                                    *** NBOs were stored ***

                                *** returned from GENNBO program ***

-------
TIMINGS
-------

Total SCF time: 0 days 0 hours 0 min 4 sec 

Total time                  ....       4.018 sec
Sum of individual times     ....       4.410 sec  (109.8%)

Fock matrix formation       ....       2.470 sec  ( 61.5%)
  Coulomb formation         ....       1.381 sec  ( 55.9% of F)
  Split-RI-J                ....       1.376 sec  ( 55.7% of F)
  XC integration            ....       1.086 sec  ( 44.0% of F)
    Basis function eval.    ....       0.368 sec  ( 33.9% of XC)
    Density eval.           ....       0.198 sec  ( 18.2% of XC)
    XC-Functional eval.     ....       0.076 sec  (  7.0% of XC)
    XC-Potential eval.      ....       0.416 sec  ( 38.3% of XC)
Diagonalization             ....       0.020 sec  (  0.5%)
Density matrix formation    ....       0.002 sec  (  0.0%)
Population analysis         ....       1.063 sec  ( 26.5%)
Initial guess               ....       0.294 sec  (  7.3%)
Orbital Transformation      ....       0.000 sec  (  0.0%)
Orbital Orthonormalization  ....       0.000 sec  (  0.0%)
DIIS solution               ....       0.005 sec  (  0.1%)
SOSCF solution              ....       0.006 sec  (  0.2%)
Grid generation             ....       0.550 sec  ( 13.7%)
           ************************************************************
           *              Shut down parallel processing               *
           ************************************************************

-------------------------   --------------------
FINAL SINGLE POINT ENERGY      -322.844967224022
-------------------------   --------------------


                            ***************************************
                            *     ORCA property calculations      *
                            ***************************************

                                    ---------------------
                                    Active property flags
                                    ---------------------
   (+) Dipole Moment


------------------------------------------------------------------------------
                       ORCA ELECTRIC PROPERTIES CALCULATION
------------------------------------------------------------------------------

Dipole Moment Calculation                       ... on
Quadrupole Moment Calculation                   ... off
Polarizability Calculation                      ... off
GBWName                                         ... 5472.gbw
Electron density file                           ... 5472.scfp.tmp

-------------
DIPOLE MOMENT
-------------
                                X             Y             Z
Electronic contribution:      0.74178      -0.89675       2.03331
Nuclear contribution   :     -1.20449       0.90184      -1.92178
                        -----------------------------------------
Total Dipole Moment    :     -0.46271       0.00509       0.11153
                        -----------------------------------------
Magnitude (a.u.)       :      0.47599
Magnitude (Debye)      :      1.20987


Timings for individual modules:

Sum of individual times         ...        5.108 sec (=   0.085 min)
GTO integral calculation        ...        0.467 sec (=   0.008 min)   9.1 %
SCF iterations                  ...        4.641 sec (=   0.077 min)  90.9 %
                             ****ORCA TERMINATED NORMALLY****
TOTAL RUN TIME: 0 days 0 hours 0 minutes 5 seconds 509 msec
