
                                 *****************
                                 * O   R   C   A *
                                 *****************

           --- An Ab Initio, DFT and Semiempirical electronic structure package ---

                  #######################################################
                  #                        -***-                        #
                  #  Department of molecular theory and spectroscopy    #
                  #              Directorship: Frank Neese              #
                  # Max Planck Institute for Chemical Energy Conversion #
                  #                  D-45470 Muelheim/Ruhr              #
                  #                       Germany                       #
                  #                                                     #
                  #                  All rights reserved                #
                  #                        -***-                        #
                  #######################################################


                         Program Version 3.0.3 - RELEASE   -


 With contributions from (in alphabetic order):
   Ute Becker             : Parallelization
   Dmytro Bykov           : SCF Hessian
   Dmitry Ganyushin       : Spin-Orbit,Spin-Spin,Magnetic field MRCI
   Andreas Hansen         : Spin unrestricted coupled pair/coupled cluster methods
   Dimitrios Liakos       : Extrapolation schemes; parallel MDCI
   Robert Izsak           : Overlap fitted RIJCOSX, COSX-SCS-MP3
   Christian Kollmar      : KDIIS, OOCD, Brueckner-CCSD(T), CCSD density
   Simone Kossmann        : Meta GGA functionals, TD-DFT gradient, OOMP2, MP2 Hessian
   Taras Petrenko         : DFT Hessian,TD-DFT gradient, ASA and ECA modules, normal mode analysis, Resonance Raman, ABS, FL, XAS/XES, NRVS
   Christoph Reimann      : Effective Core Potentials
   Michael Roemelt        : Restricted open shell CIS
   Christoph Riplinger    : Improved optimizer, TS searches, QM/MM, DLPNO-CCSD
   Barbara Sandhoefer     : DKH picture change effects
   Igor Schapiro          : Molecular dynamics
   Kantharuban Sivalingam : CASSCF convergence, NEVPT2
   Boris Wezisla          : Elementary symmetry handling
   Frank Wennmohs         : Technical directorship


 We gratefully acknowledge several colleagues who have allowed us to
 interface, adapt or use parts of their codes:
   Stefan Grimme, W. Hujo, H. Kruse, T. Risthaus : VdW corrections, initial TS optimization,
                                                   DFT functionals, gCP
   Ed Valeev                                     : LibInt (2-el integral package), F12 methods
   Garnet Chan, S. Sharma, R. Olivares           : DMRG
   Ulf Ekstrom                                   : XCFun DFT Library
   Mihaly Kallay                                 : mrcc  (arbitrary order and MRCC methods)
   Andreas Klamt, Michael Diedenhofen            : otool_cosmo (COSMO solvation model)
   Frank Weinhold                                : gennbo (NPA and NBO analysis)
   Christopher J. Cramer and Donald G. Truhlar   : smd solvation model


 Your calculation uses the libint2 library for the computation of 2-el integrals
 For citations please refer to: http://libint.valeyev.net

 This ORCA versions uses:
   CBLAS   interface :  Fast vector & matrix operations
   LAPACKE interface :  Fast linear algebra routines
   SCALAPACK package :  Parallel linear algebra routines


Your calculation utilizes the basis: Ahlrichs-VDZ
Cite in your paper:
H - Kr: A. Schaefer, H. Horn and R. Ahlrichs, J. Chem. Phys. 97, 2571 (1992).

Your calculation utilizes the basis: Ahlrichs SVPalls1+f
Cite in your paper:
Rb - Xe: A. Schaefer, C. Huber and R. Ahlrichs, J. Chem. Phys. 100, 5829 (1994).

================================================================================
                                        WARNINGS
                       Please study these warnings very carefully!
================================================================================
Now building the actual basis set


INFO   : the flag for use of LIBINT has been found!

================================================================================
                                       INPUT FILE
================================================================================
NAME = 5519.inp
|  1> ! RI PBE def2-SVP def2-SVP/J NBO PAL2
|  2> % maxcore 2000
|  3> % output
|  4>     # printlevel mini
|  5>     print[ P_Basis ] 0
|  6>     print[ P_SCFInfo ] 1
|  7>     print[ P_SCFIterInfo ] 1
|  8>     print[ P_OrbEn ] 0
|  9>     print[ P_Cartesian ] 0
| 10> end
| 11> *xyz 0 1
| 12>  C        0.9718180000    -0.1749740000    -0.1112050000 
| 13>  C        2.4771660000    -0.1061900000    -0.0146590000 
| 14>  O        3.0260460000    -0.7937530000    -1.1175890000 
| 15>  C        2.9905380000     1.3242630000     0.0004820000 
| 16>  N        4.4403500000     1.3099970000    -0.0293760000 
| 17>  C        5.1132920000     2.5403350000     0.3193060000 
| 18>  C        5.1176460000     1.3896840000     1.2499020000 
| 19>  H        0.6456030000    -1.2156440000    -0.1442130000 
| 20>  H        0.6267900000     0.3181550000    -1.0232830000 
| 21>  H        0.5019020000     0.3065090000     0.7497970000 
| 22>  H        2.7991520000    -0.5923880000     0.9217810000 
| 23>  H        3.9410110000    -0.4902210000    -1.1847010000 
| 24>  H        2.5965630000     1.8640410000     0.8773880000 
| 25>  H        2.6383820000     1.8359430000    -0.9016270000 
| 26>  H        4.4922070000     3.3913360000     0.5874010000 
| 27>  H        5.9979380000     2.7803520000    -0.2601290000 
| 28>  H        4.4995140000     1.4683460000     2.1408820000 
| 29>  H        6.0053800000     0.7768700000     1.3582530000 
| 30> *
| 31> 
| 32>                          ****END OF INPUT****
================================================================================

                       ****************************
                       * Single Point Calculation *
                       ****************************

--------------------------------
INTERNAL COORDINATES (ANGSTROEM)
--------------------------------
 C      0   0   0   0.000000     0.000     0.000
 C      1   0   0   1.510008     0.000     0.000
 O      2   1   0   1.410839   108.401     0.000
 C      2   1   3   1.519860   112.349   121.235
 N      4   2   1   1.450190   109.161   185.176
 C      5   4   2   1.445047   116.886   195.308
 C      5   4   2   1.449701   116.639   265.165
 H      1   2   3   1.091100   110.086    57.367
 H      1   2   3   1.092752   110.339   298.128
 H      1   2   3   1.092690   110.994   177.379
 H      2   1   3   1.103170   108.976   240.789
 H      3   2   1   0.966332   105.639   161.934
 H      4   2   1   1.102516   110.366    61.374
 H      4   2   1   1.095277   108.837   302.839
 H      6   5   4   1.087117   117.384     0.437
 H      6   5   4   1.084413   116.067   218.653
 H      7   5   4   1.087254   117.484   359.174
 H      7   5   4   1.084137   116.084   141.123

---------------------------
INTERNAL COORDINATES (A.U.)
---------------------------
 C      0   0   0   0.000000     0.000     0.000
 C      1   0   0   2.853502     0.000     0.000
 O      2   1   0   2.666099   108.401     0.000
 C      2   1   3   2.872120   112.349   121.235
 N      4   2   1   2.740461   109.161   185.176
 C      5   4   2   2.730744   116.886   195.308
 C      5   4   2   2.739537   116.639   265.165
 H      1   2   3   2.061881   110.086    57.367
 H      1   2   3   2.065002   110.339   298.128
 H      1   2   3   2.064885   110.994   177.379
 H      2   1   3   2.084689   108.976   240.789
 H      3   2   1   1.826102   105.639   161.934
 H      4   2   1   2.083453   110.366    61.374
 H      4   2   1   2.069773   108.837   302.839
 H      6   5   4   2.054354   117.384     0.437
 H      6   5   4   2.049244   116.067   218.653
 H      7   5   4   2.054611   117.484   359.174
 H      7   5   4   2.048722   116.084   141.123



           ************************************************************
           *        Program running with 2 parallel MPI-processes     *
           *              working on a common directory               *
           ************************************************************
------------------------------------------------------------------------------
                           ORCA GTO INTEGRAL CALCULATION
                           -- RI-GTO INTEGRALS CHOSEN --
------------------------------------------------------------------------------

                         BASIS SET STATISTICS AND STARTUP INFO

Gaussian basis set:
 # of primitive gaussian shells          ...  139
 # of primitive gaussian functions       ...  245
 # of contracted shells                  ...   75
 # of contracted basis functions         ...  153
 Highest angular momentum                ...    2
 Maximum contraction depth               ...    5
Auxiliary gaussian basis set:
 # of primitive gaussian shells          ...  256
 # of primitive gaussian functions       ...  666
 # of contracted shells                  ...  160
 # of contracted aux-basis functions     ...  464
 Highest angular momentum                ...    4
 Maximum contraction depth               ...    7
Ratio of auxiliary to basis functions    ...  3.03
Integral package used                  ... LIBINT
 One Electron integrals                  ... done
 Ordering auxiliary basis shells         ... done
 Integral threshhold             Thresh  ...  1.000e-10
 Primitive cut-off               TCut    ...  1.000e-11
 Pre-screening matrix                    ... done
 Shell pair data                         ... 
 Ordering of the shell pairs             ... done (   0.000 sec) 2713 of 2850 pairs
 Determination of significant pairs      ... done (   0.000 sec)
 Creation of shell pair data             ... done (   0.000 sec)
 Storage of shell pair data              ... done (   0.000 sec)
 Shell pair data done in (   0.001 sec)
 Computing two index integrals           ... done
 Cholesky decomposition of the V-matrix  ... done


Timings:
 Total evaluation time                   ...   0.157 sec (  0.003 min)
 One electron matrix time                ...   0.021 sec (  0.000 min) = 13.4%
 Schwartz matrix evaluation time         ...   0.072 sec (  0.001 min) = 45.5%
 Two index repulsion integral time       ...   0.004 sec (  0.000 min) =  2.6%
 Cholesky decomposition of V             ...   0.004 sec (  0.000 min) =  2.2%
 Three index repulsion integral time     ...   0.000 sec (  0.000 min) =  0.0%

           ************************************************************
           *              Shut down parallel processing               *
           ************************************************************


           ************************************************************
           *        Program running with 2 parallel MPI-processes     *
           *              working on a common directory               *
           ************************************************************
-------------------------------------------------------------------------------
                                 ORCA SCF
-------------------------------------------------------------------------------

------------
SCF SETTINGS
------------
Hamiltonian:
 Density Functional     Method          .... DFT(GTOs)
 Exchange Functional    Exchange        .... PBE
   PBE kappa parameter  XKappa          ....  0.804000
 Correlation Functional Correlation     .... PBE
 LDA part of GGA corr.  LDAOpt          .... PW91-LDA
 Gradients option       PostSCFGGA      .... off
   NL short-range parameter             ....  6.400000
 RI-approximation to the Coulomb term is turned on
   Number of auxiliary basis functions  .... 464


General Settings:
 Integral files         IntName         .... 5519
 Hartree-Fock type      HFTyp           .... RHF
 Total Charge           Charge          ....    0
 Multiplicity           Mult            ....    1
 Number of Electrons    NEL             ....   56
 Basis Dimension        Dim             ....  153
 Nuclear Repulsion      ENuc            ....    323.0221315139 Eh

Convergence Acceleration:
 DIIS                   CNVDIIS         .... on
   Start iteration      DIISMaxIt       ....    12
   Startup error        DIISStart       ....  0.200000
   # of expansion vecs  DIISMaxEq       ....     5
   Bias factor          DIISBfac        ....   1.050
   Max. coefficient     DIISMaxC        ....  10.000
 Newton-Raphson         CNVNR           .... off
 SOSCF                  CNVSOSCF        .... on
   Start iteration      SOSCFMaxIt      ....   150
   Startup grad/error   SOSCFStart      ....  0.003300
 Level Shifting         CNVShift        .... on
   Level shift para.    LevelShift      ....    0.2500
   Turn off err/grad.   ShiftErr        ....    0.0010
 Zerner damping         CNVZerner       .... off
 Static damping         CNVDamp         .... on
   Fraction old density DampFac         ....    0.7000
   Max. Damping (<1)    DampMax         ....    0.9800
   Min. Damping (>=0)   DampMin         ....    0.0000
   Turn off err/grad.   DampErr         ....    0.1000
 Fernandez-Rico         CNVRico         .... off

SCF Procedure:
 Maximum # iterations   MaxIter         ....   125
 SCF integral mode      SCFMode         .... Direct
   Integral package                     .... LIBINT
 Reset frequeny         DirectResetFreq ....    20
 Integral Threshold     Thresh          ....  1.000e-10 Eh
 Primitive CutOff       TCut            ....  1.000e-11 Eh

Convergence Tolerance:
 Convergence Check Mode ConvCheckMode   .... Total+1el-Energy
 Energy Change          TolE            ....  1.000e-06 Eh
 1-El. energy change                    ....  1.000e-03 Eh
 Orbital Gradient       TolG            ....  5.000e-05
 Orbital Rotation angle TolX            ....  5.000e-05
 DIIS Error             TolErr          ....  1.000e-06


Diagonalization of the overlap matrix:
Smallest eigenvalue                        ... 1.446e-03
Time for diagonalization                   ...    0.013 sec
Threshold for overlap eigenvalues          ... 1.000e-08
Number of eigenvalues below threshold      ... 0
Time for construction of square roots      ...    0.003 sec
Total time needed                          ...    0.016 sec

-------------------
DFT GRID GENERATION
-------------------

General Integration Accuracy     IntAcc      ...  4.340
Radial Grid Type                 RadialGrid  ... Gauss-Chebyshev
Angular Grid (max. acc.)         AngularGrid ... Lebedev-110
Angular grid pruning method      GridPruning ... 3 (G Style)
Weight generation scheme         WeightScheme... Becke
Basis function cutoff            BFCut       ...    1.0000e-10
Integration weight cutoff        WCut        ...    1.0000e-14
Grids for H and He will be reduced by one unit

# of grid points (after initial pruning)     ...  20432 (   0.0 sec)
# of grid points (after weights+screening)   ...  18857 (   0.1 sec)
nearest neighbour list constructed           ...    0.0 sec
Grid point re-assignment to atoms done       ...    0.0 sec
Grid point division into batches done        ...    0.0 sec
Reduced shell lists constructed in    0.1 sec

Total number of grid points                  ...    18857
Total number of batches                      ...      305
Average number of points per batch           ...       61
Average number of grid points per atom       ...     1048
Average number of shells per batch           ...    55.68 (74.23%)
Average number of basis functions per batch  ...   110.51 (72.23%)
Average number of large shells per batch     ...    44.48 (79.89%)
Average number of large basis fcns per batch ...    87.27 (78.98%)
Maximum spatial batch extension              ...  16.98, 19.30, 25.78 au
Average spatial batch extension              ...   1.34,  1.50,  1.57 au

Time for grid setup =    0.153 sec

------------------------------
INITIAL GUESS: MODEL POTENTIAL
------------------------------
Loading Hartree-Fock densities                     ... done
Calculating cut-offs                               ... done
Setting up the integral package                    ... done
Initializing the effective Hamiltonian             ... done
Starting the Coulomb interaction                   ... done (   0.1 sec)
Reading the grid                                   ... done
Mapping shells                                     ... done
Starting the XC term evaluation                    ... done (   0.1 sec)
  promolecular density results
     # of electrons  =     55.986392949
     EX              =    -43.544892320
     EC              =     -1.851361264
     EX+EC           =    -45.396253584
Transforming the Hamiltonian                       ... done (   0.0 sec)
Diagonalizing the Hamiltonian                      ... done (   0.0 sec)
Back transforming the eigenvectors                 ... done (   0.0 sec)
Now organizing SCF variables                       ... done
                      ------------------
                      INITIAL GUESS DONE (   0.4 sec)
                      ------------------
--------------
SCF ITERATIONS
--------------
ITER       Energy         Delta-E        Max-DP      RMS-DP      [F,P]     Damp
               ***  Starting incremental Fock matrix formation  ***
  0   -326.2419065715   0.000000000000 0.07422472  0.00261840  0.2131927 0.7000
  1   -326.3309048394  -0.088998267948 0.04227158  0.00185313  0.0799995 0.7000
                               ***Turning on DIIS***
  2   -326.3615689252  -0.030664085784 0.06262306  0.00281779  0.0221775 0.0000
  3   -326.4081132621  -0.046544336911 0.03331747  0.00129205  0.0496773 0.0000
  4   -326.4216501962  -0.013536934042 0.00944178  0.00037407  0.0086767 0.0000
  5   -326.4223791628  -0.000728966615 0.00436565  0.00016535  0.0057590 0.0000
                      *** Initiating the SOSCF procedure ***
                           *** Shutting down DIIS ***
                      *** Re-Reading the Fockian *** 
                      *** Removing any level shift *** 
ITER      Energy       Delta-E        Grad      Rot      Max-DP    RMS-DP
  6   -326.42247717  -0.0000980077  0.000463  0.000463  0.002681  0.000098
               *** Restarting incremental Fock matrix formation ***
  7   -326.42248254  -0.0000053700  0.000110  0.000284  0.000902  0.000029
  8   -326.42248086   0.0000016770  0.000232  0.000205  0.000656  0.000018
  9   -326.42248324  -0.0000023792  0.000022  0.000059  0.000181  0.000005
 10   -326.42248319   0.0000000558  0.000042  0.000037  0.000122  0.000003
                 **** Energy Check signals convergence ****
              ***Rediagonalizing the Fockian in SOSCF/NRSCF***

               *****************************************************
               *                     SUCCESS                       *
               *           SCF CONVERGED AFTER  11 CYCLES          *
               *****************************************************

Setting up the final grid:

General Integration Accuracy     IntAcc      ...  4.670
Radial Grid Type                 RadialGrid  ... Gauss-Chebyshev
Angular Grid (max. acc.)         AngularGrid ... Lebedev-302
Angular grid pruning method      GridPruning ... 3 (G Style)
Weight generation scheme         WeightScheme... Becke
Basis function cutoff            BFCut       ...    1.0000e-10
Integration weight cutoff        WCut        ...    1.0000e-14
Grids for H and He will be reduced by one unit

# of grid points (after initial pruning)     ...  80818 (   0.0 sec)
# of grid points (after weights+screening)   ...  73302 (   0.1 sec)
nearest neighbour list constructed           ...    0.0 sec
Grid point re-assignment to atoms done       ...    0.0 sec
Grid point division into batches done        ...    0.2 sec
Reduced shell lists constructed in    0.5 sec

Total number of grid points                  ...    73302
Total number of batches                      ...     1155
Average number of points per batch           ...       63
Average number of grid points per atom       ...     4072
Average number of shells per batch           ...    51.95 (69.27%)
Average number of basis functions per batch  ...   102.36 (66.90%)
Average number of large shells per batch     ...    40.42 (77.80%)
Average number of large basis fcns per batch ...    78.65 (76.83%)
Maximum spatial batch extension              ...  19.09, 15.65, 17.49 au
Average spatial batch extension              ...   0.94,  0.98,  0.97 au

Final grid set up in    0.6 sec
Final integration                            ... done (   0.5 sec)
Change in XC energy                          ...     0.000172013
Integrated number of electrons               ...    55.999950135
Previous integrated no of electrons          ...    55.998774000

----------------
TOTAL SCF ENERGY
----------------

Total Energy       :         -326.42231126 Eh           -8882.40266 eV

Components:
Nuclear Repulsion  :          323.02213151 Eh            8789.87907 eV
Electronic Energy  :         -649.44444277 Eh          -17672.28173 eV

One Electron Energy:        -1082.10530114 Eh          -29445.58223 eV
Two Electron Energy:          432.66085836 Eh           11773.30050 eV

Virial components:
Potential Energy   :         -649.81431254 Eh          -17682.34640 eV
Kinetic Energy     :          323.39200128 Eh            8799.94374 eV
Virial Ratio       :            2.00937039


DFT components:
N(Alpha)           :       27.999975067729 electrons
N(Beta)            :       27.999975067729 electrons
N(Total)           :       55.999950135457 electrons
E(X)               :      -44.470322057451 Eh       
E(C)               :       -1.865143224169 Eh       
E(XC)              :      -46.335465281619 Eh       

---------------
SCF CONVERGENCE
---------------

  Last Energy change         ...   -8.5796e-08  Tolerance :   1.0000e-06
  Last MAX-Density change    ...    1.1391e-05  Tolerance :   1.0000e-05
  Last RMS-Density change    ...    4.3058e-07  Tolerance :   1.0000e-06
  Last Orbital Gradient      ...    1.6616e-06  Tolerance :   5.0000e-05
  Last Orbital Rotation      ...    3.5731e-06  Tolerance :   5.0000e-05

             **** THE GBW FILE WAS UPDATED (5519.gbw) ****
             **** DENSITY FILE WAS UPDATED (5519.scfp.tmp) ****
             **** ENERGY FILE WAS UPDATED (5519.en.tmp) ****

                    ********************************
                    * MULLIKEN POPULATION ANALYSIS *
                    ********************************

-----------------------
MULLIKEN ATOMIC CHARGES
-----------------------
   0 C :    0.036961
   1 C :    0.062278
   2 O :   -0.273710
   3 C :    0.111405
   4 N :   -0.312438
   5 C :    0.036902
   6 C :    0.026428
   7 H :    0.027737
   8 H :    0.014994
   9 H :    0.007430
  10 H :   -0.019282
  11 H :    0.145992
  12 H :   -0.020463
  13 H :    0.009133
  14 H :    0.029285
  15 H :    0.040289
  16 H :    0.034557
  17 H :    0.042501
Sum of atomic charges:    0.0000000

--------------------------------
MULLIKEN REDUCED ORBITAL CHARGES
--------------------------------
  0 C s       :     2.973369  s :     2.973369
      pz      :     0.985721  p :     2.965515
      px      :     0.967299
      py      :     1.012495
      dz2     :     0.004783  d :     0.024155
      dxz     :     0.004885
      dyz     :     0.004019
      dx2y2   :     0.005875
      dxy     :     0.004593
  1 C s       :     3.048149  s :     3.048149
      pz      :     0.890078  p :     2.818261
      px      :     0.998275
      py      :     0.929908
      dz2     :     0.018471  d :     0.071313
      dxz     :     0.013166
      dyz     :     0.015908
      dx2y2   :     0.013056
      dxy     :     0.010712
  2 O s       :     3.718567  s :     3.718567
      pz      :     1.530301  p :     4.542567
      px      :     1.292745
      py      :     1.719520
      dz2     :     0.003372  d :     0.012576
      dxz     :     0.001212
      dyz     :     0.003138
      dx2y2   :     0.002515
      dxy     :     0.002339
  3 C s       :     2.978685  s :     2.978685
      pz      :     0.998670  p :     2.863789
      px      :     0.823484
      py      :     1.041635
      dz2     :     0.006726  d :     0.046121
      dxz     :     0.009365
      dyz     :     0.007450
      dx2y2   :     0.012607
      dxy     :     0.009974
  4 N s       :     3.608340  s :     3.608340
      pz      :     1.294963  p :     3.670875
      px      :     1.118406
      py      :     1.257505
      dz2     :     0.008184  d :     0.033223
      dxz     :     0.006399
      dyz     :     0.005610
      dx2y2   :     0.007397
      dxy     :     0.005633
  5 C s       :     3.049353  s :     3.049353
      pz      :     0.996410  p :     2.864989
      px      :     0.986154
      py      :     0.882425
      dz2     :     0.006635  d :     0.048755
      dxz     :     0.005832
      dyz     :     0.012283
      dx2y2   :     0.010519
      dxy     :     0.013487
  6 C s       :     3.049941  s :     3.049941
      pz      :     0.870808  p :     2.875466
      px      :     0.994561
      py      :     1.010097
      dz2     :     0.012991  d :     0.048166
      dxz     :     0.012668
      dyz     :     0.010550
      dx2y2   :     0.005474
      dxy     :     0.006483
  7 H s       :     0.948264  s :     0.948264
      pz      :     0.005670  p :     0.023999
      px      :     0.005232
      py      :     0.013098
  8 H s       :     0.961176  s :     0.961176
      pz      :     0.011387  p :     0.023830
      px      :     0.005282
      py      :     0.007161
  9 H s       :     0.968605  s :     0.968605
      pz      :     0.010503  p :     0.023965
      px      :     0.006232
      py      :     0.007229
 10 H s       :     0.999357  s :     0.999357
      pz      :     0.009818  p :     0.019925
      px      :     0.004407
      py      :     0.005700
 11 H s       :     0.783027  s :     0.783027
      pz      :     0.016479  p :     0.070981
      px      :     0.034472
      py      :     0.020030
 12 H s       :     0.999027  s :     0.999027
      pz      :     0.010451  p :     0.021436
      px      :     0.004359
      py      :     0.006627
 13 H s       :     0.969665  s :     0.969665
      pz      :     0.011150  p :     0.021202
      px      :     0.003712
      py      :     0.006341
 14 H s       :     0.947773  s :     0.947773
      pz      :     0.005791  p :     0.022942
      px      :     0.007197
      py      :     0.009954
 15 H s       :     0.937264  s :     0.937264
      pz      :     0.007600  p :     0.022447
      px      :     0.011001
      py      :     0.003846
 16 H s       :     0.942572  s :     0.942572
      pz      :     0.010522  p :     0.022870
      px      :     0.007176
      py      :     0.005173
 17 H s       :     0.935055  s :     0.935055
      pz      :     0.003400  p :     0.022444
      px      :     0.011052
      py      :     0.007993


                     *******************************
                     * LOEWDIN POPULATION ANALYSIS *
                     *******************************

----------------------
LOEWDIN ATOMIC CHARGES
----------------------
   0 C :   -0.064769
   1 C :    0.036330
   2 O :   -0.120764
   3 C :    0.000615
   4 N :   -0.109546
   5 C :    0.009119
   6 C :    0.004957
   7 H :    0.032349
   8 H :    0.026538
   9 H :    0.026306
  10 H :    0.002254
  11 H :    0.052399
  12 H :    0.003435
  13 H :    0.022810
  14 H :    0.016567
  15 H :    0.022836
  16 H :    0.015343
  17 H :    0.023222

-------------------------------
LOEWDIN REDUCED ORBITAL CHARGES
-------------------------------
  0 C s       :     2.841588  s :     2.841588
      pz      :     1.063427  p :     3.154912
      px      :     1.021078
      py      :     1.070407
      dz2     :     0.014481  d :     0.068268
      dxz     :     0.012211
      dyz     :     0.011272
      dx2y2   :     0.018845
      dxy     :     0.011460
  1 C s       :     2.844609  s :     2.844609
      pz      :     0.937380  p :     2.956436
      px      :     1.020227
      py      :     0.998830
      dz2     :     0.046645  d :     0.162625
      dxz     :     0.024715
      dyz     :     0.034931
      dx2y2   :     0.033817
      dxy     :     0.022518
  2 O s       :     3.443820  s :     3.443820
      pz      :     1.566592  p :     4.652543
      px      :     1.367139
      py      :     1.718812
      dz2     :     0.006420  d :     0.024400
      dxz     :     0.002583
      dyz     :     0.005245
      dx2y2   :     0.005527
      dxy     :     0.004625
  3 C s       :     2.849783  s :     2.849783
      pz      :     1.068340  p :     3.031918
      px      :     0.906736
      py      :     1.056842
      dz2     :     0.018887  d :     0.117685
      dxz     :     0.022130
      dyz     :     0.019067
      dx2y2   :     0.033742
      dxy     :     0.023859
  4 N s       :     3.191825  s :     3.191825
      pz      :     1.359024  p :     3.849746
      px      :     1.185684
      py      :     1.305038
      dz2     :     0.015321  d :     0.067975
      dxz     :     0.013628
      dyz     :     0.010032
      dx2y2   :     0.016310
      dxy     :     0.012684
  5 C s       :     2.834664  s :     2.834664
      pz      :     1.050556  p :     3.038707
      px      :     1.043732
      py      :     0.944419
      dz2     :     0.014306  d :     0.117511
      dxz     :     0.014850
      dyz     :     0.029665
      dx2y2   :     0.025435
      dxy     :     0.033255
  6 C s       :     2.837134  s :     2.837134
      pz      :     0.939290  p :     3.041741
      px      :     1.045659
      py      :     1.056792
      dz2     :     0.031723  d :     0.116168
      dxz     :     0.031241
      dyz     :     0.024149
      dx2y2   :     0.012656
      dxy     :     0.016400
  7 H s       :     0.900329  s :     0.900329
      pz      :     0.012877  p :     0.067322
      px      :     0.016153
      py      :     0.038292
  8 H s       :     0.906316  s :     0.906316
      pz      :     0.032708  p :     0.067146
      px      :     0.016114
      py      :     0.018323
  9 H s       :     0.906885  s :     0.906885
      pz      :     0.029503  p :     0.066809
      px      :     0.018865
      py      :     0.018441
 10 H s       :     0.930905  s :     0.930905
      pz      :     0.033618  p :     0.066842
      px      :     0.015216
      py      :     0.018008
 11 H s       :     0.759059  s :     0.759059
      pz      :     0.041975  p :     0.188542
      px      :     0.091789
      py      :     0.054778
 12 H s       :     0.928245  s :     0.928245
      pz      :     0.031294  p :     0.068320
      px      :     0.015766
      py      :     0.021259
 13 H s       :     0.910347  s :     0.910347
      pz      :     0.033480  p :     0.066843
      px      :     0.013211
      py      :     0.020151
 14 H s       :     0.912463  s :     0.912463
      pz      :     0.017920  p :     0.070970
      px      :     0.022200
      py      :     0.030850
 15 H s       :     0.907627  s :     0.907627
      pz      :     0.023640  p :     0.069537
      px      :     0.034251
      py      :     0.011646
 16 H s       :     0.913298  s :     0.913298
      pz      :     0.033722  p :     0.071359
      px      :     0.022107
      py      :     0.015530
 17 H s       :     0.907172  s :     0.907172
      pz      :     0.010496  p :     0.069606
      px      :     0.034377
      py      :     0.024733


                      *****************************
                      * MAYER POPULATION ANALYSIS *
                      *****************************

  NA   - Mulliken gross atomic population
  ZA   - Total nuclear charge
  QA   - Mulliken gross atomic charge
  VA   - Mayer's total valence
  BVA  - Mayer's bonded valence
  FA   - Mayer's free valence

  ATOM       NA         ZA         QA         VA         BVA        FA
  0 C      5.9630     6.0000     0.0370     3.9490     3.9490     0.0000
  1 C      5.9377     6.0000     0.0623     4.2243     4.2243    -0.0000
  2 O      8.2737     8.0000    -0.2737     2.1400     2.1400     0.0000
  3 C      5.8886     6.0000     0.1114     3.9731     3.9731     0.0000
  4 N      7.3124     7.0000    -0.3124     3.0950     3.0950    -0.0000
  5 C      5.9631     6.0000     0.0369     4.0227     4.0227     0.0000
  6 C      5.9736     6.0000     0.0264     4.0035     4.0035    -0.0000
  7 H      0.9723     1.0000     0.0277     0.9954     0.9954     0.0000
  8 H      0.9850     1.0000     0.0150     1.0073     1.0073    -0.0000
  9 H      0.9926     1.0000     0.0074     0.9933     0.9933     0.0000
 10 H      1.0193     1.0000    -0.0193     0.9724     0.9724    -0.0000
 11 H      0.8540     1.0000     0.1460     1.0707     1.0707     0.0000
 12 H      1.0205     1.0000    -0.0205     0.9962     0.9962     0.0000
 13 H      0.9909     1.0000     0.0091     0.9991     0.9991    -0.0000
 14 H      0.9707     1.0000     0.0293     0.9890     0.9890     0.0000
 15 H      0.9597     1.0000     0.0403     0.9775     0.9775     0.0000
 16 H      0.9654     1.0000     0.0346     0.9908     0.9908    -0.0000
 17 H      0.9575     1.0000     0.0425     0.9775     0.9775    -0.0000

  Mayer bond orders larger than 0.1
B(  0-C ,  1-C ) :   1.0921 B(  0-C ,  7-H ) :   0.9565 B(  0-C ,  8-H ) :   0.9524 
B(  0-C ,  9-H ) :   0.9524 B(  1-C ,  2-O ) :   1.0856 B(  1-C ,  3-C ) :   1.0481 
B(  1-C , 10-H ) :   0.8984 B(  2-O , 11-H ) :   0.9577 B(  3-C ,  4-N ) :   1.0130 
B(  3-C , 12-H ) :   0.9012 B(  3-C , 13-H ) :   0.9201 B(  4-N ,  5-C ) :   0.9749 
B(  4-N ,  6-C ) :   0.9501 B(  5-C ,  6-C ) :   1.0897 B(  5-C , 14-H ) :   0.9348 
B(  5-C , 15-H ) :   0.9505 B(  6-C , 16-H ) :   0.9320 B(  6-C , 17-H ) :   0.9515 



 *********************************** NBO 6.0 ***********************************
             N A T U R A L   A T O M I C   O R B I T A L   A N D
          N A T U R A L   B O N D   O R B I T A L   A N A L Y S I S
 ***************************** Kiya KiyaLu (100703) ****************************
  (c) Copyright 1996-2015 Board of Regents of the University of Wisconsin System
      on behalf of the Theoretical Chemistry Institute.  All rights reserved.

          Cite this program as:

          NBO 6.0.  E. D. Glendening, J. K. Badenhoop, A. E. Reed,
          J. E. Carpenter, J. A. Bohmann, C. M. Morales, C. R. Landis,
          and F. Weinhold (Theoretical Chemistry Institute, University
          of Wisconsin, Madison, WI, 2013); http://nbo6.chem.wisc.edu/

       /NPA    / : Natural Population Analysis
       /NBO    / : Natural Bond Orbital Analysis
       /AONBO  / : Write the AO to NBO transformation to lfn77
       /FILE   / : Set to 5519

 Filename set to 5519

 Job title:  *** NBO job generated by orca_scf

 Warning: MOs are non-orthogonal; program will continue

 Warning: -1706.92704 electrons reside outside the linearly independent MO space


 NATURAL POPULATIONS:  Natural atomic orbital occupancies

  NAO Atom No lang   Type(AO)    Occupancy      Energy
 -------------------------------------------------------
   1    C  1  s      Cor( 1s)     1.99916      -9.76235
   2    C  1  s      Val( 2s)     1.09030      -0.20967
   3    C  1  s      Ryd( 3s)     0.00063       0.83539
   4    C  1  px     Val( 2p)     1.09539      -0.06419
   5    C  1  px     Ryd( 3p)     0.00130       0.48308
   6    C  1  py     Val( 2p)     1.24174      -0.06160
   7    C  1  py     Ryd( 3p)     0.00341       0.62656
   8    C  1  pz     Val( 2p)     1.22908      -0.05923
   9    C  1  pz     Ryd( 3p)     0.00217       0.59386
  10    C  1  dxy    Ryd( 3d)     0.00036       2.12512
  11    C  1  dxz    Ryd( 3d)     0.00039       2.16282
  12    C  1  dyz    Ryd( 3d)     0.00045       2.23856
  13    C  1  dx2y2  Ryd( 3d)     0.00055       2.28609
  14    C  1  dz2    Ryd( 3d)     0.00049       2.26122

  15    C  2  s      Cor( 1s)     1.99895      -9.81991
  16    C  2  s      Val( 2s)     0.91611      -0.17230
  17    C  2  s      Ryd( 3s)     0.00270       0.77511
  18    C  2  px     Val( 2p)     1.01715      -0.07293
  19    C  2  px     Ryd( 3p)     0.00421       0.66191
  20    C  2  py     Val( 2p)     0.98973      -0.06371
  21    C  2  py     Ryd( 3p)     0.00474       0.58087
  22    C  2  pz     Val( 2p)     0.94418      -0.05766
  23    C  2  pz     Ryd( 3p)     0.00382       0.72221
  24    C  2  dxy    Ryd( 3d)     0.00096       2.05608
  25    C  2  dxz    Ryd( 3d)     0.00125       2.08966
  26    C  2  dyz    Ryd( 3d)     0.00148       2.21652
  27    C  2  dx2y2  Ryd( 3d)     0.00122       2.19166
  28    C  2  dz2    Ryd( 3d)     0.00193       2.19732

  29    O  3  s      Cor( 1s)     1.99974     -18.53855
  30    O  3  s      Val( 2s)     1.66631      -0.76613
  31    O  3  s      Ryd( 3s)     0.00118       1.47220
  32    O  3  px     Val( 2p)     1.54684      -0.22437
  33    O  3  px     Ryd( 3p)     0.00296       1.22715
  34    O  3  py     Val( 2p)     1.83530      -0.22775
  35    O  3  py     Ryd( 3p)     0.00185       1.06681
  36    O  3  pz     Val( 2p)     1.68491      -0.23401
  37    O  3  pz     Ryd( 3p)     0.00156       1.06174
  38    O  3  dxy    Ryd( 3d)     0.00099       2.93085
  39    O  3  dxz    Ryd( 3d)     0.00070       2.82888
  40    O  3  dyz    Ryd( 3d)     0.00118       2.84609
  41    O  3  dx2y2  Ryd( 3d)     0.00116       2.93461
  42    O  3  dz2    Ryd( 3d)     0.00107       2.87903

  43    C  4  s      Cor( 1s)     1.99903      -9.79773
  44    C  4  s      Val( 2s)     1.00105      -0.19431
  45    C  4  s      Ryd( 3s)     0.00268       0.82043
  46    C  4  px     Val( 2p)     0.87634      -0.06323
  47    C  4  px     Ryd( 3p)     0.00369       0.58925
  48    C  4  py     Val( 2p)     1.13391      -0.08537
  49    C  4  py     Ryd( 3p)     0.00219       0.58455
  50    C  4  pz     Val( 2p)     1.23615      -0.07980
  51    C  4  pz     Ryd( 3p)     0.00522       0.79295
  52    C  4  dxy    Ryd( 3d)     0.00089       2.09423
  53    C  4  dxz    Ryd( 3d)     0.00090       2.14628
  54    C  4  dyz    Ryd( 3d)     0.00070       2.26661
  55    C  4  dx2y2  Ryd( 3d)     0.00116       2.21554
  56    C  4  dz2    Ryd( 3d)     0.00069       2.22244

  57    N  5  s      Cor( 1s)     1.99930     -13.84757
  58    N  5  s      Val( 2s)     1.33361      -0.48745
  59    N  5  s      Ryd( 3s)     0.00200       1.17214
  60    N  5  px     Val( 2p)     1.29993      -0.19335
  61    N  5  px     Ryd( 3p)     0.00178       1.06585
  62    N  5  py     Val( 2p)     1.41811      -0.19759
  63    N  5  py     Ryd( 3p)     0.00444       1.03488
  64    N  5  pz     Val( 2p)     1.46705      -0.20250
  65    N  5  pz     Ryd( 3p)     0.00463       0.99393
  66    N  5  dxy    Ryd( 3d)     0.00100       2.41342
  67    N  5  dxz    Ryd( 3d)     0.00136       2.44617
  68    N  5  dyz    Ryd( 3d)     0.00172       2.24072
  69    N  5  dx2y2  Ryd( 3d)     0.00139       2.55240
  70    N  5  dz2    Ryd( 3d)     0.00192       2.50425

  71    C  6  s      Cor( 1s)     1.99915      -9.81525
  72    C  6  s      Val( 2s)     1.00792      -0.20461
  73    C  6  s      Ryd( 3s)     0.00168       0.69545
  74    C  6  px     Val( 2p)     1.14700      -0.07749
  75    C  6  px     Ryd( 3p)     0.00397       0.71839
  76    C  6  py     Val( 2p)     0.97388      -0.06075
  77    C  6  py     Ryd( 3p)     0.00422       0.46083
  78    C  6  pz     Val( 2p)     1.09198      -0.09250
  79    C  6  pz     Ryd( 3p)     0.00136       0.52503
  80    C  6  dxy    Ryd( 3d)     0.00145       2.25504
  81    C  6  dxz    Ryd( 3d)     0.00070       2.10531
  82    C  6  dyz    Ryd( 3d)     0.00147       2.16529
  83    C  6  dx2y2  Ryd( 3d)     0.00130       2.17577
  84    C  6  dz2    Ryd( 3d)     0.00087       1.99143

  85    C  7  s      Cor( 1s)     1.99914      -9.81532
  86    C  7  s      Val( 2s)     1.01136      -0.20742
  87    C  7  s      Ryd( 3s)     0.00203       0.68957
  88    C  7  px     Val( 2p)     1.14961      -0.07836
  89    C  7  px     Ryd( 3p)     0.00395       0.71775
  90    C  7  py     Val( 2p)     1.10460      -0.09395
  91    C  7  py     Ryd( 3p)     0.00138       0.51980
  92    C  7  pz     Val( 2p)     0.96541      -0.06131
  93    C  7  pz     Ryd( 3p)     0.00406       0.47728
  94    C  7  dxy    Ryd( 3d)     0.00071       2.11169
  95    C  7  dxz    Ryd( 3d)     0.00143       2.25443
  96    C  7  dyz    Ryd( 3d)     0.00143       2.07986
  97    C  7  dx2y2  Ryd( 3d)     0.00063       2.05440
  98    C  7  dz2    Ryd( 3d)     0.00151       2.20947

  99    H  8  s      Val( 1s)     0.76232       0.08128
 100    H  8  s      Ryd( 2s)     0.00228       0.34015
 101    H  8  px     Ryd( 2p)     0.00018       1.77098
 102    H  8  py     Ryd( 2p)     0.00078       2.25386
 103    H  8  pz     Ryd( 2p)     0.00015       1.74381

 104    H  9  s      Val( 1s)     0.77506       0.07286
 105    H  9  s      Ryd( 2s)     0.00344       0.35146
 106    H  9  px     Ryd( 2p)     0.00019       1.78640
 107    H  9  py     Ryd( 2p)     0.00026       1.86330
 108    H  9  pz     Ryd( 2p)     0.00064       2.13548

 109    H 10  s      Val( 1s)     0.77619       0.06492
 110    H 10  s      Ryd( 2s)     0.00175       0.34574
 111    H 10  px     Ryd( 2p)     0.00028       1.81576
 112    H 10  py     Ryd( 2p)     0.00028       1.86394
 113    H 10  pz     Ryd( 2p)     0.00055       2.08698

 114    H 11  s      Val( 1s)     0.80866       0.07050
 115    H 11  s      Ryd( 2s)     0.00456       0.35387
 116    H 11  px     Ryd( 2p)     0.00019       1.84429
 117    H 11  py     Ryd( 2p)     0.00042       1.83601
 118    H 11  pz     Ryd( 2p)     0.00069       2.11177

 119    H 12  s      Val( 1s)     0.52514       0.10834
 120    H 12  s      Ryd( 2s)     0.00378       0.44738
 121    H 12  px     Ryd( 2p)     0.00191       2.39686
 122    H 12  py     Ryd( 2p)     0.00125       1.81901
 123    H 12  pz     Ryd( 2p)     0.00110       1.75361

 124    H 13  s      Val( 1s)     0.79998       0.04359
 125    H 13  s      Ryd( 2s)     0.00524       0.36938
 126    H 13  px     Ryd( 2p)     0.00020       1.84132
 127    H 13  py     Ryd( 2p)     0.00029       1.87555
 128    H 13  pz     Ryd( 2p)     0.00060       2.09409

 129    H 14  s      Val( 1s)     0.76907       0.06826
 130    H 14  s      Ryd( 2s)     0.00476       0.33558
 131    H 14  px     Ryd( 2p)     0.00014       1.81434
 132    H 14  py     Ryd( 2p)     0.00026       1.89956
 133    H 14  pz     Ryd( 2p)     0.00071       2.11575

 134    H 15  s      Val( 1s)     0.79261       0.05320
 135    H 15  s      Ryd( 2s)     0.00281       0.32635
 136    H 15  px     Ryd( 2p)     0.00036       1.91081
 137    H 15  py     Ryd( 2p)     0.00053       2.14159
 138    H 15  pz     Ryd( 2p)     0.00024       1.69990

 139    H 16  s      Val( 1s)     0.78071       0.06993
 140    H 16  s      Ryd( 2s)     0.00185       0.29778
 141    H 16  px     Ryd( 2p)     0.00062       2.10758
 142    H 16  py     Ryd( 2p)     0.00009       1.83144
 143    H 16  pz     Ryd( 2p)     0.00037       1.83778

 144    H 17  s      Val( 1s)     0.79298       0.05294
 145    H 17  s      Ryd( 2s)     0.00314       0.33330
 146    H 17  px     Ryd( 2p)     0.00036       1.91439
 147    H 17  py     Ryd( 2p)     0.00019       1.68713
 148    H 17  pz     Ryd( 2p)     0.00059       2.16084

 149    H 18  s      Val( 1s)     0.77976       0.07044
 150    H 18  s      Ryd( 2s)     0.00176       0.29776
 151    H 18  px     Ryd( 2p)     0.00063       2.11236
 152    H 18  py     Ryd( 2p)     0.00038       1.87105
 153    H 18  pz     Ryd( 2p)     0.00007       1.79463

   1 low occupancy (<1.9990e) core orbital  found on  C  2


 Summary of Natural Population Analysis:

                                     Natural Population
             Natural    ---------------------------------------------
  Atom No    Charge        Core      Valence    Rydberg      Total
 --------------------------------------------------------------------
    C  1   -0.66543      1.99916     4.65651    0.00976     6.66543
    C  2    0.11157      1.99895     3.86717    0.02230     5.88843
    O  3   -0.74575      1.99974     6.73336    0.01266     8.74575
    C  4   -0.26462      1.99903     4.24745    0.01813     6.26462
    N  5   -0.53824      1.99930     5.51870    0.02024     7.53824
    C  6   -0.23695      1.99915     4.22078    0.01702     6.23695
    C  7   -0.24726      1.99914     4.23098    0.01713     6.24726
    H  8    0.23430      0.00000     0.76232    0.00339     0.76570
    H  9    0.22042      0.00000     0.77506    0.00452     0.77958
    H 10    0.22096      0.00000     0.77619    0.00285     0.77904
    H 11    0.18548      0.00000     0.80866    0.00586     0.81452
    H 12    0.46681      0.00000     0.52514    0.00805     0.53319
    H 13    0.19369      0.00000     0.79998    0.00633     0.80631
    H 14    0.22505      0.00000     0.76907    0.00588     0.77495
    H 15    0.20345      0.00000     0.79261    0.00394     0.79655
    H 16    0.21637      0.00000     0.78071    0.00292     0.78363
    H 17    0.20274      0.00000     0.79298    0.00427     0.79726
    H 18    0.21740      0.00000     0.77976    0.00284     0.78260
 ====================================================================
 * Total *  0.00000     13.99448    41.83742    0.16810    56.00000

                                 Natural Population
 ---------------------------------------------------------
   Core                      13.99448 ( 99.9606% of   14)
   Valence                   41.83742 ( 99.6129% of   42)
   Natural Minimal Basis     55.83190 ( 99.6998% of   56)
   Natural Rydberg Basis      0.16810 (  0.3002% of   56)
 ---------------------------------------------------------

    Atom No         Natural Electron Configuration
 ----------------------------------------------------------------------------
      C  1      [core]2s( 1.09)2p( 3.57)3p( 0.01)
      C  2      [core]2s( 0.92)2p( 2.95)3p( 0.01)3d( 0.01)
      O  3      [core]2s( 1.67)2p( 5.07)3p( 0.01)3d( 0.01)
      C  4      [core]2s( 1.00)2p( 3.25)3p( 0.01)
      N  5      [core]2s( 1.33)2p( 4.19)3p( 0.01)3d( 0.01)
      C  6      [core]2s( 1.01)2p( 3.21)3p( 0.01)3d( 0.01)
      C  7      [core]2s( 1.01)2p( 3.22)3p( 0.01)3d( 0.01)
      H  8            1s( 0.76)
      H  9            1s( 0.78)
      H 10            1s( 0.78)
      H 11            1s( 0.81)
      H 12            1s( 0.53)
      H 13            1s( 0.80)2s( 0.01)
      H 14            1s( 0.77)
      H 15            1s( 0.79)
      H 16            1s( 0.78)
      H 17            1s( 0.79)
      H 18            1s( 0.78)


 NATURAL BOND ORBITAL ANALYSIS:

                            Occupancies       Lewis Structure    Low   High
         Max    Occ     -------------------  -----------------   occ   occ
  Cycle  Ctr   Thresh    Lewis   non-Lewis     CR  BD  nC  LP    (L)   (NL)
 ============================================================================
    1     2     1.90    55.33257   0.66743      7  18   0   3     1      0
    2     2     1.89    55.45800   0.54200      7  18   0   3     0      0
    3     2     1.51    55.45800   0.54200      7  18   0   3     0      0
    4     2     1.89    55.45800   0.54200      7  18   0   3     0      0
 ----------------------------------------------------------------------------

 Structure accepted: No low occupancy Lewis orbitals

 -------------------------------------------------------
   Core                     13.99448 ( 99.961% of  14)
   Valence Lewis            41.46351 ( 98.723% of  42)
  ==================      =============================
   Total Lewis              55.45800 ( 99.032% of  56)
  -----------------------------------------------------
   Valence non-Lewis         0.42569 (  0.760% of  56)
   Rydberg non-Lewis         0.11631 (  0.208% of  56)
  ==================      =============================
   Total non-Lewis           0.54200 (  0.968% of  56)
 -------------------------------------------------------


     (Occupancy)   Bond orbital / Coefficients / Hybrids
 ------------------ Lewis ------------------------------------------------------
   1. (1.99916) CR ( 1) C  1            s(100.00%)
                                         1.0000  0.0000  0.0000  0.0000  0.0000
                                         0.0000  0.0000  0.0000  0.0000  0.0000
                                         0.0000  0.0000  0.0000  0.0000
   2. (1.99895) CR ( 1) C  2            s(100.00%)
                                         1.0000  0.0000  0.0000  0.0000  0.0000
                                         0.0000  0.0000  0.0000  0.0000  0.0000
                                         0.0000  0.0000  0.0000  0.0000
   3. (1.99974) CR ( 1) O  3            s(100.00%)
                                         1.0000  0.0000  0.0000  0.0000  0.0000
                                         0.0000  0.0000  0.0000  0.0000  0.0000
                                         0.0000  0.0000  0.0000  0.0000
   4. (1.99903) CR ( 1) C  4            s(100.00%)
                                         1.0000  0.0000  0.0000  0.0000  0.0000
                                         0.0000  0.0000  0.0000  0.0000  0.0000
                                         0.0000  0.0000  0.0000  0.0000
   5. (1.99930) CR ( 1) N  5            s(100.00%)
                                         1.0000  0.0000  0.0000  0.0000  0.0000
                                         0.0000  0.0000  0.0000  0.0000  0.0000
                                         0.0000  0.0000  0.0000  0.0000
   6. (1.99915) CR ( 1) C  6            s(100.00%)
                                         1.0000  0.0000  0.0000  0.0000  0.0000
                                         0.0000  0.0000  0.0000  0.0000  0.0000
                                         0.0000  0.0000  0.0000  0.0000
   7. (1.99914) CR ( 1) C  7            s(100.00%)
                                         1.0000  0.0000  0.0000  0.0000  0.0000
                                         0.0000  0.0000  0.0000  0.0000  0.0000
                                         0.0000  0.0000  0.0000  0.0000
   8. (1.97555) LP ( 1) O  3            s( 46.71%)p 1.14( 53.25%)d 0.00(  0.04%)
                                         0.0000  0.6834 -0.0100 -0.3039  0.0053
                                        -0.4797  0.0061 -0.4582  0.0052 -0.0091
                                        -0.0120 -0.0117  0.0070 -0.0015
   9. (1.94240) LP ( 2) O  3            s(  0.01%)p99.99( 99.93%)d 6.00(  0.06%)
                                         0.0000 -0.0065  0.0077  0.2874 -0.0061
                                        -0.7543  0.0143  0.5894 -0.0081 -0.0034
                                         0.0109 -0.0011  0.0160  0.0147
  10. (1.89765) LP ( 1) N  5            s( 26.56%)p 2.76( 73.36%)d 0.00(  0.08%)
                                         0.0000  0.5153 -0.0067  0.3536  0.0057
                                        -0.4932 -0.0196 -0.6038 -0.0193  0.0104
                                         0.0128 -0.0202  0.0073 -0.0101
  11. (1.97930) BD ( 1) C  1- C  2
               ( 49.83%)   0.7059* C  1 s( 30.35%)p 2.29( 69.62%)d 0.00(  0.04%)
                                         0.0000  0.5509  0.0032  0.8309  0.0027
                                         0.0418 -0.0155  0.0608  0.0004  0.0015
                                         0.0024  0.0002  0.0163 -0.0094
               ( 50.17%)   0.7083* C  2 s( 28.78%)p 2.47( 71.19%)d 0.00(  0.04%)
                                         0.0000  0.5363  0.0105 -0.8399  0.0082
                                        -0.0498 -0.0175 -0.0597  0.0017  0.0006
                                         0.0043 -0.0001  0.0158 -0.0108
  12. (1.98467) BD ( 1) C  1- H  8
               ( 61.77%)   0.7859* C  1 s( 23.27%)p 3.30( 76.70%)d 0.00(  0.03%)
                                         0.0000  0.4823  0.0036 -0.2757 -0.0092
                                        -0.8307  0.0103 -0.0253 -0.0022  0.0076
                                        -0.0005  0.0004 -0.0136 -0.0095
               ( 38.23%)   0.6183* H  8 s( 99.90%)p 0.00(  0.10%)
                                         0.9995 -0.0016  0.0094  0.0302  0.0021
  13. (1.98656) BD ( 1) C  1- H  9
               ( 61.30%)   0.7830* C  1 s( 23.31%)p 3.29( 76.66%)d 0.00(  0.04%)
                                         0.0000  0.4828 -0.0029 -0.2869 -0.0156
                                         0.3975 -0.0086 -0.7252  0.0025 -0.0045
                                         0.0072 -0.0133 -0.0020  0.0102
               ( 38.70%)   0.6221* H  9 s( 99.90%)p 0.00(  0.10%)
                                         0.9995 -0.0039  0.0102 -0.0122  0.0265
  14. (1.98263) BD ( 1) C  1- H 10
               ( 61.01%)   0.7811* C  1 s( 23.04%)p 3.34( 76.92%)d 0.00(  0.04%)
                                         0.0000  0.4800 -0.0018 -0.3877 -0.0169
                                         0.3865 -0.0051  0.6850 -0.0030 -0.0056
                                        -0.0100  0.0132 -0.0010  0.0096
               ( 38.99%)   0.6244* H 10 s( 99.91%)p 0.00(  0.09%)
                                         0.9995 -0.0009  0.0147 -0.0124 -0.0236
  15. (1.99001) BD ( 1) C  2- O  3
               ( 33.00%)   0.5744* C  2 s( 20.06%)p 3.97( 79.74%)d 0.01(  0.20%)
                                         0.0000  0.4470  0.0285  0.3610  0.0066
                                        -0.4343 -0.0336 -0.6905 -0.0216 -0.0135
                                        -0.0260  0.0286 -0.0006  0.0178
               ( 67.00%)   0.8186* O  3 s( 32.42%)p 2.08( 67.50%)d 0.00(  0.08%)
                                         0.0000  0.5694  0.0047 -0.3149 -0.0073
                                         0.3857 -0.0051  0.6535  0.0021 -0.0019
                                        -0.0068  0.0249 -0.0045  0.0111
  16. (1.97543) BD ( 1) C  2- C  4
               ( 48.79%)   0.6985* C  2 s( 28.27%)p 2.54( 71.69%)d 0.00(  0.04%)
                                         0.0000  0.5317 -0.0027  0.2925 -0.0068
                                         0.7945 -0.0009 -0.0036  0.0087  0.0113
                                        -0.0004 -0.0011 -0.0131 -0.0116
               ( 51.21%)   0.7156* C  4 s( 29.21%)p 2.42( 70.75%)d 0.00(  0.04%)
                                         0.0000  0.5405  0.0048 -0.2891  0.0051
                                        -0.7898  0.0083  0.0016  0.0006  0.0074
                                        -0.0002  0.0001 -0.0152 -0.0100
  17. (1.97094) BD ( 1) C  2- H 11
               ( 60.32%)   0.7766* C  2 s( 22.91%)p 3.36( 77.05%)d 0.00(  0.04%)
                                         0.0000  0.4782 -0.0212  0.2789 -0.0037
                                        -0.4192 -0.0100  0.7187 -0.0173 -0.0024
                                         0.0097 -0.0128 -0.0004  0.0114
               ( 39.68%)   0.6300* H 11 s( 99.88%)p 0.00(  0.12%)
                                         0.9993 -0.0106 -0.0099  0.0171 -0.0283
  18. (1.98696) BD ( 1) O  3- H 12
               ( 74.24%)   0.8616* O  3 s( 20.85%)p 3.79( 79.03%)d 0.01(  0.11%)
                                         0.0000  0.4564  0.0163  0.8503  0.0330
                                         0.2260 -0.0045 -0.1206 -0.0233  0.0228
                                         0.0060  0.0038  0.0176 -0.0159
               ( 25.76%)   0.5075* H 12 s( 99.62%)p 0.00(  0.38%)
                                         0.9980 -0.0131 -0.0580 -0.0172  0.0097
  19. (1.98289) BD ( 1) C  4- N  5
               ( 38.42%)   0.6198* C  4 s( 23.38%)p 3.27( 76.50%)d 0.01(  0.12%)
                                         0.0000  0.4832  0.0173  0.8741  0.0232
                                         0.0106  0.0015  0.0004 -0.0200 -0.0016
                                        -0.0007  0.0008  0.0294 -0.0180
               ( 61.58%)   0.7847* N  5 s( 31.50%)p 2.17( 68.43%)d 0.00(  0.07%)
                                         0.0000  0.5613  0.0019 -0.8269  0.0103
                                        -0.0037  0.0031 -0.0029  0.0197 -0.0092
                                        -0.0122  0.0019  0.0186 -0.0106
  20. (1.98396) BD ( 1) C  4- H 13
               ( 60.67%)   0.7789* C  4 s( 24.34%)p 3.11( 75.62%)d 0.00(  0.04%)
                                         0.0000  0.4932 -0.0118 -0.2779 -0.0140
                                         0.4405  0.0072  0.6961 -0.0151 -0.0048
                                        -0.0093  0.0134 -0.0021  0.0103
               ( 39.33%)   0.6271* H 13 s( 99.90%)p 0.00(  0.10%)
                                         0.9994 -0.0103  0.0132 -0.0160 -0.0248
  21. (1.97459) BD ( 1) C  4- H 14
               ( 61.68%)   0.7854* C  4 s( 23.07%)p 3.33( 76.89%)d 0.00(  0.04%)
                                         0.0000  0.4803 -0.0017 -0.2698  0.0032
                                         0.4259  0.0078 -0.7173  0.0119 -0.0039
                                         0.0076 -0.0125 -0.0034  0.0117
               ( 38.32%)   0.6190* H 14 s( 99.89%)p 0.00(  0.11%)
                                         0.9994 -0.0071  0.0113 -0.0154  0.0280
  22. (1.96299) BD ( 1) N  5- C  6
               ( 60.71%)   0.7791* N  5 s( 21.32%)p 3.69( 78.56%)d 0.01(  0.12%)
                                         0.0000  0.4617  0.0059  0.3102 -0.0101
                                         0.8238 -0.0002 -0.0985  0.0317  0.0118
                                         0.0118  0.0169 -0.0205 -0.0151
               ( 39.29%)   0.6269* C  6 s( 19.11%)p 4.22( 80.72%)d 0.01(  0.17%)
                                         0.0000  0.4371  0.0084 -0.4906  0.0122
                                        -0.5845 -0.0174 -0.4731 -0.0227  0.0293
                                         0.0099  0.0134 -0.0173 -0.0172
  23. (1.96349) BD ( 1) N  5- C  7
               ( 60.38%)   0.7771* N  5 s( 20.58%)p 3.85( 79.30%)d 0.01(  0.12%)
                                         0.0000  0.4536  0.0007  0.3056 -0.0144
                                        -0.2748  0.0285  0.7894 -0.0019  0.0088
                                         0.0139  0.0050  0.0050  0.0300
               ( 39.62%)   0.6294* C  7 s( 19.00%)p 4.26( 80.83%)d 0.01(  0.17%)
                                         0.0000  0.4358  0.0045 -0.4930  0.0135
                                        -0.3423 -0.0141 -0.6687 -0.0227  0.0036
                                         0.0311  0.0024  0.0080  0.0264
  24. (1.96774) BD ( 1) C  6- C  7
               ( 49.96%)   0.7068* C  6 s( 22.36%)p 3.47( 77.56%)d 0.00(  0.08%)
                                         0.0000  0.4727  0.0137  0.2324  0.0110
                                        -0.4328  0.0051  0.7308 -0.0039 -0.0012
                                         0.0000 -0.0225 -0.0165  0.0022
               ( 50.04%)   0.7074* C  7 s( 22.37%)p 3.47( 77.55%)d 0.00(  0.08%)
                                         0.0000  0.4727  0.0143  0.2268  0.0104
                                         0.8063 -0.0036 -0.2717  0.0039  0.0001
                                        -0.0009 -0.0230 -0.0148  0.0047
  25. (1.98993) BD ( 1) C  6- H 15
               ( 60.79%)   0.7797* C  6 s( 29.35%)p 2.41( 70.61%)d 0.00(  0.04%)
                                         0.0000  0.5416 -0.0145 -0.4864  0.0271
                                         0.6566  0.0156  0.1931 -0.0109 -0.0153
                                        -0.0075  0.0063  0.0007 -0.0066
               ( 39.21%)   0.6262* H 15 s( 99.90%)p 0.00(  0.10%)
                                         0.9995 -0.0062  0.0165 -0.0257 -0.0080
  26. (1.98806) BD ( 1) C  6- H 16
               ( 61.32%)   0.7830* C  6 s( 29.13%)p 2.43( 70.84%)d 0.00(  0.03%)
                                         0.0000  0.5397  0.0009  0.6832 -0.0162
                                         0.1939  0.0135 -0.4512  0.0024  0.0002
                                        -0.0146 -0.0022  0.0107 -0.0012
               ( 38.68%)   0.6220* H 16 s( 99.90%)p 0.00(  0.10%)
                                         0.9995 -0.0045 -0.0256 -0.0071  0.0173
  27. (1.99009) BD ( 1) C  7- H 17
               ( 60.80%)   0.7797* C  7 s( 29.41%)p 2.40( 70.56%)d 0.00(  0.04%)
                                         0.0000  0.5421 -0.0143 -0.4834  0.0276
                                         0.0487 -0.0123  0.6844  0.0138 -0.0040
                                        -0.0165  0.0034  0.0070  0.0047
               ( 39.20%)   0.6261* H 17 s( 99.90%)p 0.00(  0.10%)
                                         0.9995 -0.0066  0.0166 -0.0022 -0.0269
  28. (1.98767) BD ( 1) C  7- H 18
               ( 61.33%)   0.7832* C  7 s( 29.19%)p 2.43( 70.78%)d 0.00(  0.03%)
                                         0.0000  0.5402  0.0018  0.6856 -0.0148
                                        -0.4788 -0.0011  0.0906  0.0132 -0.0143
                                        -0.0031 -0.0001  0.0063 -0.0091
               ( 38.67%)   0.6218* H 18 s( 99.90%)p 0.00(  0.10%)
                                         0.9995 -0.0042 -0.0259  0.0184 -0.0033
 ---------------- non-Lewis ----------------------------------------------------
  29. (0.02022) BD*( 1) C  1- C  2
               ( 50.17%)   0.7083* C  1 s( 30.35%)p 2.29( 69.62%)d 0.00(  0.04%)
                                         0.0000  0.5509  0.0032  0.8309  0.0027
                                         0.0418 -0.0155  0.0608  0.0004  0.0015
                                         0.0024  0.0002  0.0163 -0.0094
               ( 49.83%)  -0.7059* C  2 s( 28.78%)p 2.47( 71.19%)d 0.00(  0.04%)
                                         0.0000  0.5363  0.0105 -0.8399  0.0082
                                        -0.0498 -0.0175 -0.0597  0.0017  0.0006
                                         0.0043 -0.0001  0.0158 -0.0108
  30. (0.00706) BD*( 1) C  1- H  8
               ( 38.23%)   0.6183* C  1 s( 23.27%)p 3.30( 76.70%)d 0.00(  0.03%)
                                         0.0000 -0.4823 -0.0036  0.2757  0.0092
                                         0.8307 -0.0103  0.0253  0.0022 -0.0076
                                         0.0005 -0.0004  0.0136  0.0095
               ( 61.77%)  -0.7859* H  8 s( 99.90%)p 0.00(  0.10%)
                                        -0.9995  0.0016 -0.0094 -0.0302 -0.0021
  31. (0.01145) BD*( 1) C  1- H  9
               ( 38.70%)   0.6221* C  1 s( 23.31%)p 3.29( 76.66%)d 0.00(  0.04%)
                                         0.0000 -0.4828  0.0029  0.2869  0.0156
                                        -0.3975  0.0086  0.7252 -0.0025  0.0045
                                        -0.0072  0.0133  0.0020 -0.0102
               ( 61.30%)  -0.7830* H  9 s( 99.90%)p 0.00(  0.10%)
                                        -0.9995  0.0039 -0.0102  0.0122 -0.0265
  32. (0.00640) BD*( 1) C  1- H 10
               ( 38.99%)   0.6244* C  1 s( 23.04%)p 3.34( 76.92%)d 0.00(  0.04%)
                                         0.0000 -0.4800  0.0018  0.3877  0.0169
                                        -0.3865  0.0051 -0.6850  0.0030  0.0056
                                         0.0100 -0.0132  0.0010 -0.0096
               ( 61.01%)  -0.7811* H 10 s( 99.91%)p 0.00(  0.09%)
                                        -0.9995  0.0009 -0.0147  0.0124  0.0236
  33. (0.03170) BD*( 1) C  2- O  3
               ( 67.00%)   0.8186* C  2 s( 20.06%)p 3.97( 79.74%)d 0.01(  0.20%)
                                         0.0000  0.4470  0.0285  0.3610  0.0066
                                        -0.4343 -0.0336 -0.6905 -0.0216 -0.0135
                                        -0.0260  0.0286 -0.0006  0.0178
               ( 33.00%)  -0.5744* O  3 s( 32.42%)p 2.08( 67.50%)d 0.00(  0.08%)
                                         0.0000  0.5694  0.0047 -0.3149 -0.0073
                                         0.3857 -0.0051  0.6535  0.0021 -0.0019
                                        -0.0068  0.0249 -0.0045  0.0111
  34. (0.03978) BD*( 1) C  2- C  4
               ( 51.21%)   0.7156* C  2 s( 28.27%)p 2.54( 71.69%)d 0.00(  0.04%)
                                         0.0000  0.5317 -0.0027  0.2925 -0.0068
                                         0.7945 -0.0009 -0.0036  0.0087  0.0113
                                        -0.0004 -0.0011 -0.0131 -0.0116
               ( 48.79%)  -0.6985* C  4 s( 29.21%)p 2.42( 70.75%)d 0.00(  0.04%)
                                         0.0000  0.5405  0.0048 -0.2891  0.0051
                                        -0.7898  0.0083  0.0016  0.0006  0.0074
                                        -0.0002  0.0001 -0.0152 -0.0100
  35. (0.04542) BD*( 1) C  2- H 11
               ( 39.68%)   0.6300* C  2 s( 22.91%)p 3.36( 77.05%)d 0.00(  0.04%)
                                         0.0000 -0.4782  0.0212 -0.2789  0.0037
                                         0.4192  0.0100 -0.7187  0.0173  0.0024
                                        -0.0097  0.0128  0.0004 -0.0114
               ( 60.32%)  -0.7766* H 11 s( 99.88%)p 0.00(  0.12%)
                                        -0.9993  0.0106  0.0099 -0.0171  0.0283
  36. (0.02031) BD*( 1) O  3- H 12
               ( 25.76%)   0.5075* O  3 s( 20.85%)p 3.79( 79.03%)d 0.01(  0.11%)
                                         0.0000 -0.4564 -0.0163 -0.8503 -0.0330
                                        -0.2260  0.0045  0.1206  0.0233 -0.0228
                                        -0.0060 -0.0038 -0.0176  0.0159
               ( 74.24%)  -0.8616* H 12 s( 99.62%)p 0.00(  0.38%)
                                        -0.9980  0.0131  0.0580  0.0172 -0.0097
  37. (0.02458) BD*( 1) C  4- N  5
               ( 61.58%)   0.7847* C  4 s( 23.38%)p 3.27( 76.50%)d 0.01(  0.12%)
                                         0.0000  0.4832  0.0173  0.8741  0.0232
                                         0.0106  0.0015  0.0004 -0.0200 -0.0016
                                        -0.0007  0.0008  0.0294 -0.0180
               ( 38.42%)  -0.6198* N  5 s( 31.50%)p 2.17( 68.43%)d 0.00(  0.07%)
                                         0.0000  0.5613  0.0019 -0.8269  0.0103
                                        -0.0037  0.0031 -0.0029  0.0197 -0.0092
                                        -0.0122  0.0019  0.0186 -0.0106
  38. (0.03378) BD*( 1) C  4- H 13
               ( 39.33%)   0.6271* C  4 s( 24.34%)p 3.11( 75.62%)d 0.00(  0.04%)
                                         0.0000 -0.4932  0.0118  0.2779  0.0140
                                        -0.4405 -0.0072 -0.6961  0.0151  0.0048
                                         0.0093 -0.0134  0.0021 -0.0103
               ( 60.67%)  -0.7789* H 13 s( 99.90%)p 0.00(  0.10%)
                                        -0.9994  0.0103 -0.0132  0.0160  0.0248
  39. (0.02159) BD*( 1) C  4- H 14
               ( 38.32%)   0.6190* C  4 s( 23.07%)p 3.33( 76.89%)d 0.00(  0.04%)
                                         0.0000 -0.4803  0.0017  0.2698 -0.0032
                                        -0.4259 -0.0078  0.7173 -0.0119  0.0039
                                        -0.0076  0.0125  0.0034 -0.0117
               ( 61.68%)  -0.7854* H 14 s( 99.89%)p 0.00(  0.11%)
                                        -0.9994  0.0071 -0.0113  0.0154 -0.0280
  40. (0.02826) BD*( 1) N  5- C  6
               ( 39.29%)   0.6269* N  5 s( 21.32%)p 3.69( 78.56%)d 0.01(  0.12%)
                                         0.0000 -0.4617 -0.0059 -0.3102  0.0101
                                        -0.8238  0.0002  0.0985 -0.0317 -0.0118
                                        -0.0118 -0.0169  0.0205  0.0151
               ( 60.71%)  -0.7791* C  6 s( 19.11%)p 4.22( 80.72%)d 0.01(  0.17%)
                                         0.0000 -0.4371 -0.0084  0.4906 -0.0122
                                         0.5845  0.0174  0.4731  0.0227 -0.0293
                                        -0.0099 -0.0134  0.0173  0.0172
  41. (0.03106) BD*( 1) N  5- C  7
               ( 39.62%)   0.6294* N  5 s( 20.58%)p 3.85( 79.30%)d 0.01(  0.12%)
                                         0.0000 -0.4536 -0.0007 -0.3056  0.0144
                                         0.2748 -0.0285 -0.7894  0.0019 -0.0088
                                        -0.0139 -0.0050 -0.0050 -0.0300
               ( 60.38%)  -0.7771* C  7 s( 19.00%)p 4.26( 80.83%)d 0.01(  0.17%)
                                         0.0000 -0.4358 -0.0045  0.4930 -0.0135
                                         0.3423  0.0141  0.6687  0.0227 -0.0036
                                        -0.0311 -0.0024 -0.0080 -0.0264
  42. (0.02040) BD*( 1) C  6- C  7
               ( 50.04%)   0.7074* C  6 s( 22.36%)p 3.47( 77.56%)d 0.00(  0.08%)
                                         0.0000  0.4727  0.0137  0.2324  0.0110
                                        -0.4328  0.0051  0.7308 -0.0039 -0.0012
                                         0.0000 -0.0225 -0.0165  0.0022
               ( 49.96%)  -0.7068* C  7 s( 22.37%)p 3.47( 77.55%)d 0.00(  0.08%)
                                         0.0000  0.4727  0.0143  0.2268  0.0104
                                         0.8063 -0.0036 -0.2717  0.0039  0.0001
                                        -0.0009 -0.0230 -0.0148  0.0047
  43. (0.02155) BD*( 1) C  6- H 15
               ( 39.21%)   0.6262* C  6 s( 29.35%)p 2.41( 70.61%)d 0.00(  0.04%)
                                         0.0000 -0.5416  0.0145  0.4864 -0.0271
                                        -0.6566 -0.0156 -0.1931  0.0109  0.0153
                                         0.0075 -0.0063 -0.0007  0.0066
               ( 60.79%)  -0.7797* H 15 s( 99.90%)p 0.00(  0.10%)
                                        -0.9995  0.0062 -0.0165  0.0257  0.0080
  44. (0.02026) BD*( 1) C  6- H 16
               ( 38.68%)   0.6220* C  6 s( 29.13%)p 2.43( 70.84%)d 0.00(  0.03%)
                                         0.0000 -0.5397 -0.0009 -0.6832  0.0162
                                        -0.1939 -0.0135  0.4512 -0.0024 -0.0002
                                         0.0146  0.0022 -0.0107  0.0012
               ( 61.32%)  -0.7830* H 16 s( 99.90%)p 0.00(  0.10%)
                                        -0.9995  0.0045  0.0256  0.0071 -0.0173
  45. (0.02227) BD*( 1) C  7- H 17
               ( 39.20%)   0.6261* C  7 s( 29.41%)p 2.40( 70.56%)d 0.00(  0.04%)
                                         0.0000 -0.5421  0.0143  0.4834 -0.0276
                                        -0.0487  0.0123 -0.6844 -0.0138  0.0040
                                         0.0165 -0.0034 -0.0070 -0.0047
               ( 60.80%)  -0.7797* H 17 s( 99.90%)p 0.00(  0.10%)
                                        -0.9995  0.0066 -0.0166  0.0022  0.0269
  46. (0.01961) BD*( 1) C  7- H 18
               ( 38.67%)   0.6218* C  7 s( 29.19%)p 2.43( 70.78%)d 0.00(  0.03%)
                                         0.0000 -0.5402 -0.0018 -0.6856  0.0148
                                         0.4788  0.0011 -0.0906 -0.0132  0.0143
                                         0.0031  0.0001 -0.0063  0.0091
               ( 61.33%)  -0.7832* H 18 s( 99.90%)p 0.00(  0.10%)
                                        -0.9995  0.0042  0.0259 -0.0184  0.0033
  47. (0.00345) RY ( 1) C  1            s(  3.76%)p24.33( 91.42%)d 1.28(  4.82%)
                                         0.0000  0.0106  0.1936  0.0087  0.0558
                                         0.0173  0.9211 -0.0008  0.2494  0.2096
                                         0.0085  0.0224 -0.0560 -0.0239
  48. (0.00256) RY ( 2) C  1            s(  6.13%)p14.15( 86.78%)d 1.15(  7.08%)
                                         0.0000  0.0064  0.2476 -0.0035  0.3418
                                         0.0081  0.1354 -0.0074 -0.8559  0.1009
                                        -0.2340  0.0469  0.0011 -0.0607
  49. (0.00054) RY ( 3) C  1            s( 47.62%)p 0.91( 43.29%)d 0.19(  9.09%)
                                         0.0000  0.0073  0.6900 -0.0118  0.5353
                                        -0.0025 -0.2014  0.0013  0.3249 -0.2625
                                         0.0614  0.0073  0.0247  0.1326
  50. (0.00021) RY ( 4) C  1            s( 25.15%)p 2.22( 55.75%)d 0.76( 19.10%)
                                         0.0000 -0.0138  0.5013  0.0166 -0.7297
                                        -0.0059  0.0540 -0.0034 -0.1477 -0.3285
                                        -0.1548  0.0441 -0.0940  0.2198
  51. (0.00010) RY ( 5) C  1            s(  1.69%)p 4.08(  6.89%)d54.16( 91.42%)
  52. (0.00004) RY ( 6) C  1            s(  6.91%)p 0.80(  5.54%)d12.66( 87.54%)
  53. (0.00001) RY ( 7) C  1            s(  1.06%)p 2.20(  2.32%)d91.53( 96.62%)
  54. (0.00001) RY ( 8) C  1            s(  2.03%)p 1.12(  2.27%)d47.14( 95.70%)
  55. (0.00000) RY ( 9) C  1            s(  5.69%)p 1.03(  5.84%)d15.55( 88.47%)
  56. (0.00545) RY ( 1) C  2            s(  1.04%)p88.63( 92.06%)d 6.65(  6.91%)
                                         0.0000 -0.0284  0.0979 -0.0084 -0.2458
                                         0.0295 -0.7016  0.0132 -0.6056  0.0136
                                        -0.1043 -0.1675  0.1227  0.1221
  57. (0.00459) RY ( 2) C  2            s(  0.61%)p99.99( 85.06%)d23.68( 14.33%)
                                         0.0000 -0.0098  0.0772  0.0076  0.8677
                                         0.0140 -0.2904  0.0134  0.1137  0.1900
                                        -0.0438 -0.0502  0.1797  0.2655
  58. (0.00285) RY ( 3) C  2            s( 48.24%)p 0.23( 11.27%)d 0.84( 40.48%)
                                         0.0000 -0.0086  0.6945  0.0132 -0.0243
                                        -0.0038 -0.1868  0.0372  0.2751 -0.0754
                                        -0.2871  0.1417  0.1586 -0.5210
  59. (0.00195) RY ( 4) C  2            s(  5.07%)p12.62( 63.97%)d 6.11( 30.96%)
                                         0.0000  0.0086  0.2250  0.0090  0.2639
                                         0.0005  0.4901 -0.0120 -0.5742 -0.0653
                                         0.1422 -0.3838  0.2216 -0.2979
  60. (0.00111) RY ( 5) C  2            s(  3.02%)p 4.50( 13.62%)d27.56( 83.35%)
                                         0.0000 -0.0085  0.1737 -0.0063  0.2005
                                         0.0013 -0.1193  0.0118 -0.2856  0.0490
                                         0.4689  0.4959 -0.5737 -0.1903
  61. (0.00077) RY ( 6) C  2            s(  4.56%)p 1.66(  7.55%)d19.28( 87.89%)
                                         0.0000  0.0051  0.2135  0.0089 -0.2199
                                        -0.0218  0.0005 -0.0173  0.1623  0.8295
                                         0.3272 -0.2893 -0.0051 -0.0012
  62. (0.00031) RY ( 7) C  2            s( 11.37%)p 0.41(  4.71%)d 7.38( 83.91%)
                                         0.0000  0.0001  0.3372  0.0034 -0.1621
                                         0.0172  0.1410  0.0136 -0.0220 -0.1333
                                         0.3908  0.4063  0.5302  0.4717
  63. (0.00025) RY ( 8) C  2            s(  8.54%)p 2.08( 17.75%)d 8.63( 73.70%)
                                         0.0000  0.0005  0.2923 -0.0195 -0.0240
                                         0.0080  0.3343  0.0252 -0.2532  0.2799
                                        -0.6087  0.2072 -0.2902  0.4013
  64. (0.00008) RY ( 9) C  2            s( 17.52%)p 0.25(  4.34%)d 4.46( 78.14%)
  65. (0.00213) RY ( 1) O  3            s( 11.54%)p 7.15( 82.47%)d 0.52(  5.99%)
                                         0.0000  0.0033  0.3397 -0.0028 -0.5823
                                         0.0089  0.4937 -0.0116 -0.4917 -0.0871
                                        -0.0720  0.0414  0.0533 -0.2063
  66. (0.00138) RY ( 2) O  3            s(  5.27%)p15.93( 83.89%)d 2.06( 10.84%)
                                         0.0000  0.0035  0.2295  0.0087 -0.5078
                                        -0.0047 -0.7619 -0.0043  0.0201 -0.0172
                                        -0.1652 -0.1549  0.2358  0.0347
  67. (0.00022) RY ( 3) O  3            s( 69.51%)p 0.40( 28.11%)d 0.03(  2.38%)
                                         0.0000  0.0001  0.8337 -0.0057  0.1325
                                        -0.0016  0.1434 -0.0074  0.4929  0.0388
                                         0.0811 -0.0179 -0.0718  0.1011
  68. (0.00005) RY ( 4) O  3            s( 11.34%)p 6.60( 74.83%)d 1.22( 13.83%)
  69. (0.00002) RY ( 5) O  3            s(  1.18%)p 7.85(  9.26%)d75.89( 89.56%)
  70. (0.00001) RY ( 6) O  3            s(  0.41%)p 7.52(  3.05%)d99.99( 96.54%)
  71. (0.00000) RY ( 7) O  3            s(  0.27%)p28.55(  7.60%)d99.99( 92.13%)
  72. (0.00001) RY ( 8) O  3            s(  0.00%)p 1.00(  3.12%)d31.06( 96.88%)
  73. (0.00000) RY ( 9) O  3            s(  0.49%)p16.13(  7.94%)d99.99( 91.57%)
  74. (0.00542) RY ( 1) C  4            s(  0.21%)p99.99( 95.78%)d18.77(  4.00%)
                                         0.0000 -0.0070  0.0457 -0.0216  0.0287
                                        -0.0005 -0.3433 -0.0207 -0.9156  0.0699
                                        -0.1189  0.1153  0.0653 -0.0589
  75. (0.00319) RY ( 2) C  4            s( 39.36%)p 1.19( 46.90%)d 0.35( 13.74%)
                                         0.0000 -0.0115  0.6272 -0.0235  0.6279
                                         0.0162  0.2683  0.0133 -0.0413  0.3360
                                         0.1360 -0.0096 -0.0417 -0.0651
  76. (0.00301) RY ( 3) C  4            s( 31.95%)p 1.83( 58.38%)d 0.30(  9.67%)
                                         0.0000  0.0021  0.5652  0.0021 -0.7542
                                         0.0011  0.1220 -0.0064  0.0009  0.2589
                                         0.0165  0.0868  0.1358 -0.0584
  77. (0.00171) RY ( 4) C  4            s(  7.30%)p 9.23( 67.33%)d 3.48( 25.37%)
                                         0.0000  0.0112  0.2699 -0.0073  0.0491
                                         0.0022 -0.7832  0.0121  0.2393 -0.1329
                                         0.4841  0.0057  0.0408 -0.0040
  78. (0.00040) RY ( 5) C  4            s( 14.43%)p 0.40(  5.80%)d 5.53( 79.77%)
                                         0.0000 -0.0017  0.3798 -0.0170  0.1194
                                        -0.0011 -0.1448 -0.0019  0.1500 -0.5083
                                        -0.6920 -0.0042  0.2293 -0.0892
  79. (0.00033) RY ( 6) C  4            s(  0.94%)p 5.60(  5.24%)d99.99( 93.83%)
                                         0.0000 -0.0037  0.0967  0.0068  0.0092
                                        -0.0052  0.2191 -0.0121 -0.0638 -0.4299
                                         0.2211  0.7958 -0.1790  0.1982
  80. (0.00023) RY ( 7) C  4            s(  1.70%)p 2.70(  4.59%)d55.24( 93.72%)
                                         0.0000  0.0062  0.1301  0.0304 -0.0856
                                         0.0084 -0.1899 -0.0006  0.0386  0.0982
                                        -0.2844 -0.0612 -0.9108  0.1155
  81. (0.00010) RY ( 8) C  4            s(  3.82%)p 4.07( 15.56%)d21.09( 80.62%)
  82. (0.00002) RY ( 9) C  4            s(  0.30%)p 2.24(  0.66%)d99.99( 99.04%)
  83. (0.00511) RY ( 1) N  5            s( 17.13%)p 4.46( 76.37%)d 0.38(  6.50%)
                                         0.0000 -0.0156  0.4137  0.0061 -0.0579
                                        -0.0219  0.6643 -0.0251  0.5638  0.1353
                                         0.1140 -0.1113  0.1142 -0.0908
  84. (0.00237) RY ( 2) N  5            s( 33.10%)p 1.22( 40.44%)d 0.80( 26.46%)
[...]

                     72        73        74        75        76        77   
                   0.00000   0.00000   0.00000   0.00000   0.00000   0.00000
                   0.00000   0.00542   0.00319   0.00301   0.00171   0.00040
                  --------  --------  --------  --------  --------  --------
  0 C                -0.0       0.1      -2.0      -6.1       1.3       0.4
  1 C                -0.7     -19.0      -7.9     -26.8     -56.7     -17.9
  2 O               106.0      -0.8      -0.3      -0.0       0.1       0.2
  3 C                -0.0     158.9     178.1     165.3     172.6     135.5
  4 N                -0.0      -9.3     -37.4      -0.5      -4.3      -7.8
  5 C                -0.0      -1.0      -8.8      -0.4      -4.4       0.9
  6 C                -0.0      -2.6      -7.4       0.2      -4.9      -2.6
  7 H                -0.0      -0.0      -0.1      -0.4      -0.2      -0.1
  8 H                 0.0      -0.1      -0.2       0.3      -0.0      -0.0
  9 H                -0.0      -0.0      -0.1       0.3      -0.1      -0.0
 10 H                -0.0      -0.1       0.1       0.1       1.6       0.1
 11 H                -5.2       0.1       0.1      -0.1       0.0      -0.2
 12 H                -0.0     -15.6      -4.0     -16.8      -2.2      -6.4
 13 H                -0.0     -10.4      -9.3     -15.0      -2.4      -2.1
 14 H                -0.0      -0.1      -0.5      -0.0      -0.2       0.0
 16 H                -0.0       0.1      -0.1      -0.2      -0.1       0.1

                     78        79        80        81        82        83   
                   0.00000   0.00000   0.00000   0.00000   0.00000   0.00000
                   0.00033   0.00023   0.00010   0.00002   0.00511   0.00237
                  --------  --------  --------  --------  --------  --------
  0 C                -0.1       1.4       0.2       0.0      -0.4      -0.1
  1 C                -0.4      -6.6      -2.9      -2.3      -0.5      -0.8
  2 O                 0.0      -0.2      -0.2      -0.0      -0.2      -0.0
  3 C               111.9     109.7     121.6     108.6     -11.6      -2.2
  4 N                -2.3      -1.6      -3.2      -1.0     117.7     129.9
  5 C                -0.2      -0.3      -0.2      -0.0      -0.9     -14.7
  6 C                -0.2      -0.1       0.3      -0.0      -2.1     -11.9
 10 H                -0.2      -0.3       0.1       0.0       0.0      -0.0
 11 H                -0.0      -0.1      -0.0      -0.0      -1.8      -0.1
 12 H                -4.7      -0.8      -1.4      -2.4      -0.1      -0.5
 13 H                -3.6      -1.3     -14.3      -2.7       0.1      -0.0
 14 H                -0.1       0.2      -0.0      -0.0      -0.0      -0.1
 15 H                -0.0      -0.0      -0.0      -0.0      -0.0       0.3
 16 H                 0.0      -0.0      -0.0      -0.0      -0.0      -0.1
 17 H                 0.0       0.0      -0.0      -0.0       0.0       0.2

                     84        85        86        87        88        89   
                   0.00000   0.00000   0.00000   0.00000   0.00000   0.00000
                   0.00131   0.00058   0.00030   0.00027   0.00011   0.00006
                  --------  --------  --------  --------  --------  --------
  0 C                -0.7      -0.6      -0.1       0.1      -0.0      -0.2
  1 C                -2.0       1.3      -0.3      -0.1       0.0      -0.3
  2 O                -0.1      -0.1      -0.1      -0.0      -0.0      -0.0
  3 C                -9.5     -30.0      -2.9      -1.9      -1.0      -5.7
  4 N               129.3     140.4     105.5     103.2     105.1     114.0
  5 C                -9.1      -3.2      -0.9      -0.7      -3.3      -4.7
  6 C                -8.1      -8.7      -1.1      -0.5      -0.4      -3.1
 12 H                 0.2      -0.1      -0.1       0.0      -0.0      -0.0
 13 H                -0.2       1.1       0.1       0.0      -0.1       0.1
 14 H                -0.2       0.0       0.0      -0.0      -0.1       0.1
 15 H                 0.4      -0.1      -0.1       0.0      -0.0       0.1
 16 H                 0.2      -0.3       0.1      -0.0      -0.0      -0.2
 17 H                 0.0       0.3      -0.1       0.0       0.0      -0.0

                     90        91        92        93        94        95   
                   0.00000   0.00000   0.00000   0.00000   0.00000   0.00000
                   0.00001   0.00539   0.00379   0.00096   0.00059   0.00025
                  --------  --------  --------  --------  --------  --------
  1 C                -0.1      -1.0      -0.1      -0.2      -0.1      -0.1
  3 C                -1.3      -6.2      -3.3      -3.3      -0.1      -0.1
  4 N               103.8     -10.6      -2.0     -11.7      -3.1      -1.9
  5 C                -1.3     175.1     144.8     123.6     119.7     139.9
  6 C                -0.9     -51.4     -14.6      -1.8      -0.9      -8.6
 13 H                -0.1      -0.1       0.1      -0.3      -0.0      -0.1
 14 H                -0.0      -2.0     -18.3      -0.3      -4.0     -20.7
 15 H                 0.0      -4.0      -7.3      -5.9     -11.3      -8.8
 16 H                -0.0       0.7      -0.2      -0.1      -0.0       0.2
 17 H                 0.0      -0.4       0.9      -0.0       0.0       0.0

                     96        97        98        99       100       101   
                   0.00000   0.00000   0.00000   0.00000   0.00000   0.00000
                   0.00006   0.00003   0.00001   0.00001   0.00543   0.00352
                  --------  --------  --------  --------  --------  --------
  1 C                -0.2       0.0       0.0      -0.0       1.2       0.1
  3 C                -0.7       0.1       0.1      -0.1     -11.3      -3.5
  4 N                -5.2      -1.6      -0.4      -0.6     -12.7      -2.0
  5 C               137.8     115.1     112.8     132.6     -50.1     -14.8
  6 C               -23.7      -9.0      -1.4     -16.2     178.5     145.6
 10 H                 0.0      -0.0      -0.0      -0.0      -0.4      -0.2
 12 H                -0.0      -0.0      -0.1      -0.0      -0.0       0.1
 13 H                -0.1      -0.1      -0.0      -0.0      -0.2      -0.0
 14 H                -3.6      -1.1      -4.9      -3.0       0.7      -0.2
 15 H                -4.2      -3.5      -6.0     -12.9      -0.4       0.9
 16 H                 0.0       0.3      -0.0      -0.1      -2.3     -19.1
 17 H                -0.1      -0.2       0.0       0.3      -3.0      -6.9

                    102       103       104       105       106       107   
                   0.00000   0.00000   0.00000   0.00000   0.00000   0.00000
                   0.00126   0.00059   0.00030   0.00008   0.00005   0.00001
                  --------  --------  --------  --------  --------  --------
  1 C                -0.3      -0.1      -0.0      -0.1       0.0      -0.1
  3 C                -1.7      -0.2      -0.1      -1.2       0.0       0.0
  4 N                -8.7      -3.4      -1.0      -4.7      -0.6      -1.6
  5 C                -2.3      -0.4      -9.7     -26.7      -7.8      -0.6
  6 C               124.7     119.0     140.0     140.5     115.1     107.9
 10 H                -1.0      -0.0      -0.1       0.1      -0.1       0.0
 14 H                -0.0      -0.0       0.2       0.1       0.3      -0.0
 15 H                -0.1      -0.0       0.1      -0.1      -0.1      -0.0
 16 H                -1.6      -4.1     -18.7      -3.5      -2.2      -2.8
 17 H                -8.8     -10.8     -10.7      -4.0      -4.5      -2.8

                    108       109       110       111       112       113   
                   0.00000   0.00000   0.00000   0.00000   0.00000   0.00000
                   0.00001   0.00230   0.00015   0.00012   0.00003   0.00347
                  --------  --------  --------  --------  --------  --------
  0 C                -0.0     -35.0      -2.9      -3.0      -8.3     -34.1
  1 C                 0.0       0.3      -0.2      -0.2      -0.2       0.2
  2 O                -0.0      -0.1      -0.1      -0.1      -0.0      -0.1
  3 C                 0.0      -0.5      -0.0      -0.1      -0.1       0.0
  4 N                 0.6      -0.0      -0.0      -0.0       0.0      -0.0
  5 C               -15.2      -0.0      -0.0      -0.0      -0.0      -0.0
  6 C               130.7       0.0      -0.0      -0.0      -0.0       0.0
  7 H                -0.0     136.2     104.1     104.3     108.8      -0.3
  8 H                -0.0      -0.3      -0.3      -0.4      -0.1     136.6
  9 H                -0.0      -0.3      -0.4      -0.3      -0.1      -0.3
 10 H                 0.0      -0.3      -0.0      -0.1      -0.0      -0.0
 13 H                -0.0      -0.0      -0.0      -0.0      -0.0      -1.9
 15 H                 0.3      -0.0      -0.0      -0.0      -0.0      -0.0
 16 H                -3.7      -0.0      -0.0      -0.0      -0.0      -0.0
 17 H               -12.6      -0.0      -0.0      -0.0      -0.0      -0.0

                    114       115       116       117       118       119   
                   0.00000   0.00000   0.00000   0.00000   0.00000   0.00000
                   0.00016   0.00013   0.00004   0.00178   0.00017   0.00014
                  --------  --------  --------  --------  --------  --------
  0 C                -2.9      -2.9      -8.2     -34.1      -2.9      -2.8
  1 C                -0.1      -0.2      -0.0       0.7      -0.2      -0.2
  2 O                -0.1      -0.2      -0.0      -0.1      -0.1      -0.2
  7 H                -0.3      -0.4      -0.0      -0.3      -0.3      -0.3
  8 H               104.0     104.3     108.5      -0.3      -0.4      -0.4
  9 H                -0.4      -0.4      -0.1     136.1     104.0     104.0
 10 H                -0.0      -0.0      -0.0      -0.4      -0.0      -0.1
 12 H                -0.0      -0.0      -0.0      -1.7      -0.0      -0.0

                    120       121       122       123       124       125   
                   0.00000   0.00000   0.00000   0.00000   0.00000   0.00000
                   0.00003   0.00468   0.00015   0.00010   0.00004   0.00410
                  --------  --------  --------  --------  --------  --------
  0 C                -8.0       0.4      -0.3      -0.4       0.1       0.1
  1 C                -0.1     -35.4      -3.2      -3.1      -7.5      -5.5
  2 O                -0.1       0.1      -0.8      -0.6      -0.6      -5.1
  3 C                -0.0       1.4      -0.4      -0.2      -0.0       0.3
  4 N                -0.0       0.1      -0.0      -0.2      -0.1      -1.7
  6 C                -0.0      -1.6      -0.0      -0.0      -0.0      -0.1
  7 H                -0.1      -0.3      -0.1      -0.0      -0.0      -0.0
  8 H                -0.1      -0.1      -0.0      -0.0      -0.0      -0.0
  9 H               108.6      -0.4      -0.1      -0.0      -0.0      -0.0
 10 H                -0.0     136.8     104.9     104.8     108.2      -0.1
 11 H                -0.0      -0.1      -0.0      -0.2      -0.0     112.5
 12 H                -0.1      -0.2      -0.0      -0.0      -0.0      -0.0
 13 H                 0.0      -0.0      -0.0      -0.0      -0.0      -0.1
 16 H                -0.0      -0.6      -0.0      -0.0      -0.0      -0.0

                    126       127       128       129       130       131   
                   0.00000   0.00000   0.00000   0.00000   0.00000   0.00000
                   0.00138   0.00083   0.00003   0.00534   0.00013   0.00009
                  --------  --------  --------  --------  --------  --------
  0 C                -0.0      -0.1       0.0       0.2      -0.0      -0.2
  1 C                -0.2      -0.5      -0.1       0.4       0.1      -0.3
  2 O                -3.1      -2.6      -4.5      -0.1      -0.0      -0.2
  3 C                -0.1      -0.0       0.0     -32.2      -3.6      -3.4
  4 N                -0.0      -0.3       0.0      -0.2      -0.1      -0.2
  5 C                -0.0      -0.0      -0.0      -0.1      -0.1       0.0
  6 C                -0.0      -0.0      -0.0      -0.2       0.0      -0.1
  9 H                -0.0      -0.0       0.0      -1.7      -0.0      -0.0
 10 H                -0.0      -0.1      -0.0      -0.2      -0.1      -0.0
 11 H               103.6     103.7     104.5      -0.0      -0.0      -0.0
 12 H                -0.0      -0.0      -0.0     138.7     104.5     105.2
 13 H                -0.0       0.0      -0.0      -0.4      -0.6      -0.7
 14 H                -0.0      -0.0      -0.0      -1.5       0.0      -0.0
 16 H                -0.0      -0.0      -0.0      -2.6      -0.0      -0.0

                    132       133       134       135       136       137   
                   0.00000   0.00000   0.00000   0.00000   0.00000   0.00000
                   0.00003   0.00481   0.00010   0.00008   0.00003   0.00288
                  --------  --------  --------  --------  --------  --------
  0 C                -0.0      -0.2      -0.0      -0.1      -0.0      -0.0
  1 C                -0.2       0.9       0.2      -0.3      -0.1      -0.0
  2 O                -0.0      -0.1      -0.1      -0.2      -0.0      -0.0
  3 C                -6.7     -38.5      -4.6      -3.8      -6.4      -0.9
  4 N                -0.4       0.9      -0.1      -0.1      -0.5      -0.1
  5 C                -0.0      -0.3      -0.1      -0.2      -0.1     -38.0
  6 C                -0.0      -0.2       0.0      -0.0       0.0       0.8
  8 H                -0.0      -1.9      -0.0      -0.1      -0.0      -0.0
 11 H                -0.0      -0.1      -0.0      -0.0      -0.0      -0.0
 12 H               107.5      -0.4      -0.7      -0.6      -0.1      -1.5
 13 H                -0.0     140.1     105.5     105.4     107.3      -0.1
 14 H                -0.0      -0.1       0.0      -0.0      -0.0     141.1
 15 H                 0.0       0.0      -0.0      -0.0      -0.0      -0.8
 16 H                -0.0       0.0      -0.0      -0.0      -0.0      -0.5

                    138       139       140       141       142       143   
                   0.00000   0.00000   0.00000   0.00000   0.00000   0.00000
                   0.00020   0.00010   0.00001   0.00188   0.00013   0.00012
                  --------  --------  --------  --------  --------  --------
  3 C                -0.1      -0.0      -0.0      -0.1      -0.1       0.0
  4 N                -0.1      -0.0      -0.5       0.3      -0.1       0.0
  5 C                -3.1      -5.3      -5.7     -42.5      -3.4      -5.5
  6 C                -0.2      -0.0      -0.4       0.1      -0.1       0.1
 14 H               103.7     106.1     106.6      -0.8      -0.2      -0.6
 15 H                -0.2      -0.7      -0.1     143.7     103.9     106.0
 17 H                -0.0      -0.0      -0.0      -0.8      -0.0      -0.0

                    144       145       146       147       148       149   
                   0.00000   0.00000   0.00000   0.00000   0.00000   0.00000
                   0.00002   0.00321   0.00019   0.00010   0.00001   0.00178
                  --------  --------  --------  --------  --------  --------
  3 C                -0.0      -0.3      -0.2      -0.0      -0.0      -0.1
  4 N                -0.3      -0.2      -0.1      -0.0      -0.4       0.3
  5 C                -6.1       0.7      -0.2      -0.0      -0.4       0.2
  6 C                -0.3     -38.4      -2.9      -5.4      -5.6     -42.8
 10 H                -0.0      -0.6       0.0      -0.0      -0.0      -0.0
 12 H                -0.0      -2.7      -0.0      -0.1      -0.0      -0.0
 14 H                -0.1      -0.5      -0.0      -0.0       0.0       0.0
 15 H               106.8       0.0      -0.0      -0.0      -0.0      -0.8
 16 H                -0.0     142.8     103.7     106.2     106.6      -0.8
 17 H                -0.0      -0.8      -0.2      -0.7      -0.1     144.1

                    150       151       152   
                   0.00000   0.00000   0.00000
                   0.00013   0.00012   0.00002
                  --------  --------  --------
  4 N                -0.1       0.0      -0.3
  5 C                -0.0       0.1      -0.3
  6 C                -3.8      -5.1      -6.0
 16 H                -0.3      -0.6      -0.1
 17 H               104.3     105.6     106.8

Storing NBOs: 5519.nbo
                                    *** NBOs were stored ***

                                *** returned from GENNBO program ***

-------
TIMINGS
-------

Total SCF time: 0 days 0 hours 0 min 6 sec 

Total time                  ....       6.270 sec
Sum of individual times     ....       6.811 sec  (108.6%)

Fock matrix formation       ....       3.984 sec  ( 63.5%)
  Coulomb formation         ....       2.083 sec  ( 52.3% of F)
  Split-RI-J                ....       2.075 sec  ( 52.1% of F)
  XC integration            ....       1.896 sec  ( 47.6% of F)
    Basis function eval.    ....       0.637 sec  ( 33.6% of XC)
    Density eval.           ....       0.353 sec  ( 18.6% of XC)
    XC-Functional eval.     ....       0.106 sec  (  5.6% of XC)
    XC-Potential eval.      ....       0.758 sec  ( 40.0% of XC)
Diagonalization             ....       0.031 sec  (  0.5%)
Density matrix formation    ....       0.003 sec  (  0.1%)
Population analysis         ....       1.578 sec  ( 25.2%)
Initial guess               ....       0.414 sec  (  6.6%)
Orbital Transformation      ....       0.000 sec  (  0.0%)
Orbital Orthonormalization  ....       0.000 sec  (  0.0%)
DIIS solution               ....       0.008 sec  (  0.1%)
SOSCF solution              ....       0.013 sec  (  0.2%)
Grid generation             ....       0.781 sec  ( 12.5%)
           ************************************************************
           *              Shut down parallel processing               *
           ************************************************************

-------------------------   --------------------
FINAL SINGLE POINT ENERGY      -326.422311259301
-------------------------   --------------------


                            ***************************************
                            *     ORCA property calculations      *
                            ***************************************

                                    ---------------------
                                    Active property flags
                                    ---------------------
   (+) Dipole Moment


------------------------------------------------------------------------------
                       ORCA ELECTRIC PROPERTIES CALCULATION
------------------------------------------------------------------------------

Dipole Moment Calculation                       ... on
Quadrupole Moment Calculation                   ... off
Polarizability Calculation                      ... off
GBWName                                         ... 5519.gbw
Electron density file                           ... 5519.scfp.tmp

-------------
DIPOLE MOMENT
-------------
                                X             Y             Z
Electronic contribution:      2.93899      -1.29483      -2.03907
Nuclear contribution   :     -2.69098       2.03314       2.68733
                        -----------------------------------------
Total Dipole Moment    :      0.24802       0.73831       0.64825
                        -----------------------------------------
Magnitude (a.u.)       :      1.01334
Magnitude (Debye)      :      2.57569


Timings for individual modules:

Sum of individual times         ...        7.493 sec (=   0.125 min)
GTO integral calculation        ...        0.473 sec (=   0.008 min)   6.3 %
SCF iterations                  ...        7.021 sec (=   0.117 min)  93.7 %
                             ****ORCA TERMINATED NORMALLY****
TOTAL RUN TIME: 0 days 0 hours 0 minutes 7 seconds 897 msec
