
                                 *****************
                                 * O   R   C   A *
                                 *****************

           --- An Ab Initio, DFT and Semiempirical electronic structure package ---

                  #######################################################
                  #                        -***-                        #
                  #  Department of molecular theory and spectroscopy    #
                  #              Directorship: Frank Neese              #
                  # Max Planck Institute for Chemical Energy Conversion #
                  #                  D-45470 Muelheim/Ruhr              #
                  #                       Germany                       #
                  #                                                     #
                  #                  All rights reserved                #
                  #                        -***-                        #
                  #######################################################


                         Program Version 3.0.3 - RELEASE   -


 With contributions from (in alphabetic order):
   Ute Becker             : Parallelization
   Dmytro Bykov           : SCF Hessian
   Dmitry Ganyushin       : Spin-Orbit,Spin-Spin,Magnetic field MRCI
   Andreas Hansen         : Spin unrestricted coupled pair/coupled cluster methods
   Dimitrios Liakos       : Extrapolation schemes; parallel MDCI
   Robert Izsak           : Overlap fitted RIJCOSX, COSX-SCS-MP3
   Christian Kollmar      : KDIIS, OOCD, Brueckner-CCSD(T), CCSD density
   Simone Kossmann        : Meta GGA functionals, TD-DFT gradient, OOMP2, MP2 Hessian
   Taras Petrenko         : DFT Hessian,TD-DFT gradient, ASA and ECA modules, normal mode analysis, Resonance Raman, ABS, FL, XAS/XES, NRVS
   Christoph Reimann      : Effective Core Potentials
   Michael Roemelt        : Restricted open shell CIS
   Christoph Riplinger    : Improved optimizer, TS searches, QM/MM, DLPNO-CCSD
   Barbara Sandhoefer     : DKH picture change effects
   Igor Schapiro          : Molecular dynamics
   Kantharuban Sivalingam : CASSCF convergence, NEVPT2
   Boris Wezisla          : Elementary symmetry handling
   Frank Wennmohs         : Technical directorship


 We gratefully acknowledge several colleagues who have allowed us to
 interface, adapt or use parts of their codes:
   Stefan Grimme, W. Hujo, H. Kruse, T. Risthaus : VdW corrections, initial TS optimization,
                                                   DFT functionals, gCP
   Ed Valeev                                     : LibInt (2-el integral package), F12 methods
   Garnet Chan, S. Sharma, R. Olivares           : DMRG
   Ulf Ekstrom                                   : XCFun DFT Library
   Mihaly Kallay                                 : mrcc  (arbitrary order and MRCC methods)
   Andreas Klamt, Michael Diedenhofen            : otool_cosmo (COSMO solvation model)
   Frank Weinhold                                : gennbo (NPA and NBO analysis)
   Christopher J. Cramer and Donald G. Truhlar   : smd solvation model


 Your calculation uses the libint2 library for the computation of 2-el integrals
 For citations please refer to: http://libint.valeyev.net

 This ORCA versions uses:
   CBLAS   interface :  Fast vector & matrix operations
   LAPACKE interface :  Fast linear algebra routines
   SCALAPACK package :  Parallel linear algebra routines


Your calculation utilizes the basis: Ahlrichs-VDZ
Cite in your paper:
H - Kr: A. Schaefer, H. Horn and R. Ahlrichs, J. Chem. Phys. 97, 2571 (1992).

Your calculation utilizes the basis: Ahlrichs SVPalls1+f
Cite in your paper:
Rb - Xe: A. Schaefer, C. Huber and R. Ahlrichs, J. Chem. Phys. 100, 5829 (1994).

================================================================================
                                        WARNINGS
                       Please study these warnings very carefully!
================================================================================
Now building the actual basis set


INFO   : the flag for use of LIBINT has been found!

================================================================================
                                       INPUT FILE
================================================================================
NAME = 5637.inp
|  1> ! RI PBE def2-SVP def2-SVP/J NBO PAL2
|  2> % maxcore 2000
|  3> % output
|  4>     # printlevel mini
|  5>     print[ P_Basis ] 0
|  6>     print[ P_SCFInfo ] 1
|  7>     print[ P_SCFIterInfo ] 1
|  8>     print[ P_OrbEn ] 0
|  9>     print[ P_Cartesian ] 0
| 10> end
| 11> *xyz 0 1
| 12>  C        1.2945740000     0.5300660000    -0.0868730000 
| 13>  N        2.0600730000     0.2149800000    -1.2793820000 
| 14>  C        2.9057760000    -0.9450610000    -1.1845890000 
| 15>  C        3.8249020000    -1.0833460000     0.0000070000 
| 16>  C        3.3743170000    -1.4772200000    -2.5171220000 
| 17>  C        2.2614820000    -2.1668670000    -1.7843420000 
| 18>  O        0.9646970000    -2.0644450000    -2.2564960000 
| 19>  H        0.6157630000     1.3571190000    -0.3042770000 
| 20>  H        1.9022260000     0.8084320000     0.7849210000 
| 21>  H        0.6878250000    -0.3355270000     0.1889460000 
| 22>  H        2.5845340000     1.0191240000    -1.5988910000 
| 23>  H        3.2761000000    -1.0725360000     0.9450500000 
| 24>  H        4.5621270000    -0.2735440000     0.0239390000 
| 25>  H        4.3718420000    -2.0272120000    -0.0500290000 
| 26>  H        4.3525180000    -1.9414050000    -2.5617110000 
| 27>  H        3.0848550000    -0.9194700000    -3.4003300000 
| 28>  H        2.4557250000    -3.1321800000    -1.3305180000 
| 29>  H        0.7966720000    -1.1081970000    -2.2873920000 
| 30> *
| 31> 
| 32>                          ****END OF INPUT****
================================================================================

                       ****************************
                       * Single Point Calculation *
                       ****************************

--------------------------------
INTERNAL COORDINATES (ANGSTROEM)
--------------------------------
 C      0   0   0   0.000000     0.000     0.000
 N      1   0   0   1.451670     0.000     0.000
 C      2   1   0   1.438713   115.522     0.000
 C      3   2   1   1.505717   118.993   310.564
 C      3   2   1   1.509426   114.115   163.410
 C      5   3   2   1.500327    60.043   257.524
 O      6   5   3   1.383861   119.630   107.871
 H      1   2   3   1.091818   109.189   185.917
 H      1   2   3   1.098523   114.534    64.608
 H      1   2   3   1.092461   109.166   303.500
 H      2   1   3   1.011827   111.114   232.530
 H      4   3   2   1.092889   111.892    58.264
 H      4   3   2   1.095378   111.108   297.247
 H      4   3   2   1.092030   110.430   177.889
 H      5   3   2   1.083667   117.875   147.737
 H      5   3   2   1.083942   117.066     3.257
 H      6   5   3   1.084212   118.738   251.577
 H      7   6   5   0.971389   104.229   303.192

---------------------------
INTERNAL COORDINATES (A.U.)
---------------------------
 C      0   0   0   0.000000     0.000     0.000
 N      1   0   0   2.743259     0.000     0.000
 C      2   1   0   2.718773   115.522     0.000
 C      3   2   1   2.845392   118.993   310.564
 C      3   2   1   2.852403   114.115   163.410
 C      5   3   2   2.835207    60.043   257.524
 O      6   5   3   2.615118   119.630   107.871
 H      1   2   3   2.063236   109.189   185.917
 H      1   2   3   2.075908   114.534    64.608
 H      1   2   3   2.064453   109.166   303.500
 H      2   1   3   1.912075   111.114   232.530
 H      4   3   2   2.065261   111.892    58.264
 H      4   3   2   2.069964   111.108   297.247
 H      4   3   2   2.063638   110.430   177.889
 H      5   3   2   2.047833   117.875   147.737
 H      5   3   2   2.048353   117.066     3.257
 H      6   5   3   2.048864   118.738   251.577
 H      7   6   5   1.835660   104.229   303.192



           ************************************************************
           *        Program running with 2 parallel MPI-processes     *
           *              working on a common directory               *
           ************************************************************
------------------------------------------------------------------------------
                           ORCA GTO INTEGRAL CALCULATION
                           -- RI-GTO INTEGRALS CHOSEN --
------------------------------------------------------------------------------

                         BASIS SET STATISTICS AND STARTUP INFO

Gaussian basis set:
 # of primitive gaussian shells          ...  139
 # of primitive gaussian functions       ...  245
 # of contracted shells                  ...   75
 # of contracted basis functions         ...  153
 Highest angular momentum                ...    2
 Maximum contraction depth               ...    5
Auxiliary gaussian basis set:
 # of primitive gaussian shells          ...  256
 # of primitive gaussian functions       ...  666
 # of contracted shells                  ...  160
 # of contracted aux-basis functions     ...  464
 Highest angular momentum                ...    4
 Maximum contraction depth               ...    7
Ratio of auxiliary to basis functions    ...  3.03
Integral package used                  ... LIBINT
 One Electron integrals                  ... done
 Ordering auxiliary basis shells         ... done
 Integral threshhold             Thresh  ...  1.000e-10
 Primitive cut-off               TCut    ...  1.000e-11
 Pre-screening matrix                    ... done
 Shell pair data                         ... 
 Ordering of the shell pairs             ... done (   0.000 sec) 2794 of 2850 pairs
 Determination of significant pairs      ... done (   0.000 sec)
 Creation of shell pair data             ... done (   0.000 sec)
 Storage of shell pair data              ... done (   0.001 sec)
 Shell pair data done in (   0.001 sec)
 Computing two index integrals           ... done
 Cholesky decomposition of the V-matrix  ... done


Timings:
 Total evaluation time                   ...   0.166 sec (  0.003 min)
 One electron matrix time                ...   0.026 sec (  0.000 min) = 15.3%
 Schwartz matrix evaluation time         ...   0.073 sec (  0.001 min) = 43.6%
 Two index repulsion integral time       ...   0.008 sec (  0.000 min) =  4.7%
 Cholesky decomposition of V             ...   0.004 sec (  0.000 min) =  2.4%
 Three index repulsion integral time     ...   0.000 sec (  0.000 min) =  0.0%

           ************************************************************
           *              Shut down parallel processing               *
           ************************************************************


           ************************************************************
           *        Program running with 2 parallel MPI-processes     *
           *              working on a common directory               *
           ************************************************************
-------------------------------------------------------------------------------
                                 ORCA SCF
-------------------------------------------------------------------------------

------------
SCF SETTINGS
------------
Hamiltonian:
 Density Functional     Method          .... DFT(GTOs)
 Exchange Functional    Exchange        .... PBE
   PBE kappa parameter  XKappa          ....  0.804000
 Correlation Functional Correlation     .... PBE
 LDA part of GGA corr.  LDAOpt          .... PW91-LDA
 Gradients option       PostSCFGGA      .... off
   NL short-range parameter             ....  6.400000
 RI-approximation to the Coulomb term is turned on
   Number of auxiliary basis functions  .... 464


General Settings:
 Integral files         IntName         .... 5637
 Hartree-Fock type      HFTyp           .... RHF
 Total Charge           Charge          ....    0
 Multiplicity           Mult            ....    1
 Number of Electrons    NEL             ....   56
 Basis Dimension        Dim             ....  153
 Nuclear Repulsion      ENuc            ....    333.3135236539 Eh

Convergence Acceleration:
 DIIS                   CNVDIIS         .... on
   Start iteration      DIISMaxIt       ....    12
   Startup error        DIISStart       ....  0.200000
   # of expansion vecs  DIISMaxEq       ....     5
   Bias factor          DIISBfac        ....   1.050
   Max. coefficient     DIISMaxC        ....  10.000
 Newton-Raphson         CNVNR           .... off
 SOSCF                  CNVSOSCF        .... on
   Start iteration      SOSCFMaxIt      ....   150
   Startup grad/error   SOSCFStart      ....  0.003300
 Level Shifting         CNVShift        .... on
   Level shift para.    LevelShift      ....    0.2500
   Turn off err/grad.   ShiftErr        ....    0.0010
 Zerner damping         CNVZerner       .... off
 Static damping         CNVDamp         .... on
   Fraction old density DampFac         ....    0.7000
   Max. Damping (<1)    DampMax         ....    0.9800
   Min. Damping (>=0)   DampMin         ....    0.0000
   Turn off err/grad.   DampErr         ....    0.1000
 Fernandez-Rico         CNVRico         .... off

SCF Procedure:
 Maximum # iterations   MaxIter         ....   125
 SCF integral mode      SCFMode         .... Direct
   Integral package                     .... LIBINT
 Reset frequeny         DirectResetFreq ....    20
 Integral Threshold     Thresh          ....  1.000e-10 Eh
 Primitive CutOff       TCut            ....  1.000e-11 Eh

Convergence Tolerance:
 Convergence Check Mode ConvCheckMode   .... Total+1el-Energy
 Energy Change          TolE            ....  1.000e-06 Eh
 1-El. energy change                    ....  1.000e-03 Eh
 Orbital Gradient       TolG            ....  5.000e-05
 Orbital Rotation angle TolX            ....  5.000e-05
 DIIS Error             TolErr          ....  1.000e-06


Diagonalization of the overlap matrix:
Smallest eigenvalue                        ... 1.401e-03
Time for diagonalization                   ...    0.013 sec
Threshold for overlap eigenvalues          ... 1.000e-08
Number of eigenvalues below threshold      ... 0
Time for construction of square roots      ...    0.003 sec
Total time needed                          ...    0.016 sec

-------------------
DFT GRID GENERATION
-------------------

General Integration Accuracy     IntAcc      ...  4.340
Radial Grid Type                 RadialGrid  ... Gauss-Chebyshev
Angular Grid (max. acc.)         AngularGrid ... Lebedev-110
Angular grid pruning method      GridPruning ... 3 (G Style)
Weight generation scheme         WeightScheme... Becke
Basis function cutoff            BFCut       ...    1.0000e-10
Integration weight cutoff        WCut        ...    1.0000e-14
Grids for H and He will be reduced by one unit

# of grid points (after initial pruning)     ...  20432 (   0.0 sec)
# of grid points (after weights+screening)   ...  18725 (   0.1 sec)
nearest neighbour list constructed           ...    0.0 sec
Grid point re-assignment to atoms done       ...    0.0 sec
Grid point division into batches done        ...    0.0 sec
Reduced shell lists constructed in    0.1 sec

Total number of grid points                  ...    18725
Total number of batches                      ...      301
Average number of points per batch           ...       62
Average number of grid points per atom       ...     1040
Average number of shells per batch           ...    59.34 (79.11%)
Average number of basis functions per batch  ...   119.12 (77.86%)
Average number of large shells per batch     ...    47.15 (79.47%)
Average number of large basis fcns per batch ...    91.81 (77.07%)
Maximum spatial batch extension              ...  17.46, 16.49, 25.60 au
Average spatial batch extension              ...   1.34,  1.34,  1.43 au

Time for grid setup =    0.154 sec

------------------------------
INITIAL GUESS: MODEL POTENTIAL
------------------------------
Loading Hartree-Fock densities                     ... done
Calculating cut-offs                               ... done
Setting up the integral package                    ... done
Initializing the effective Hamiltonian             ... done
Starting the Coulomb interaction                   ... done (   0.1 sec)
Reading the grid                                   ... done
Mapping shells                                     ... done
Starting the XC term evaluation                    ... done (   0.1 sec)
  promolecular density results
     # of electrons  =     55.988819399
     EX              =    -43.561135979
     EC              =     -1.854930756
     EX+EC           =    -45.416066734
Transforming the Hamiltonian                       ... done (   0.0 sec)
Diagonalizing the Hamiltonian                      ... done (   0.0 sec)
Back transforming the eigenvectors                 ... done (   0.0 sec)
Now organizing SCF variables                       ... done
                      ------------------
                      INITIAL GUESS DONE (   0.4 sec)
                      ------------------
--------------
SCF ITERATIONS
--------------
ITER       Energy         Delta-E        Max-DP      RMS-DP      [F,P]     Damp
               ***  Starting incremental Fock matrix formation  ***
  0   -326.2286626849   0.000000000000 0.07131534  0.00269770  0.2099802 0.7000
  1   -326.3270242398  -0.098361554883 0.04111050  0.00192296  0.0810149 0.7000
                               ***Turning on DIIS***
  2   -326.3614473469  -0.034423107106 0.05145854  0.00293241  0.0235240 0.0000
  3   -326.4119008113  -0.050453464421 0.03084949  0.00132707  0.0474884 0.0000
  4   -326.4275446169  -0.015643805546 0.00834845  0.00039263  0.0096845 0.0000
  5   -326.4283328777  -0.000788260838 0.00341865  0.00017130  0.0049825 0.0000
                      *** Initiating the SOSCF procedure ***
                           *** Shutting down DIIS ***
                      *** Re-Reading the Fockian *** 
                      *** Removing any level shift *** 
ITER      Energy       Delta-E        Grad      Rot      Max-DP    RMS-DP
  6   -326.42842732  -0.0000944397  0.000219  0.000219  0.002161  0.000102
               *** Restarting incremental Fock matrix formation ***
  7   -326.42843244  -0.0000051191  0.000154  0.000427  0.001384  0.000047
  8   -326.42842837   0.0000040640  0.000316  0.000303  0.000909  0.000031
  9   -326.42843384  -0.0000054660  0.000023  0.000039  0.000133  0.000005
 10   -326.42843382   0.0000000201  0.000037  0.000023  0.000080  0.000003
                 **** Energy Check signals convergence ****
              ***Rediagonalizing the Fockian in SOSCF/NRSCF***

               *****************************************************
               *                     SUCCESS                       *
               *           SCF CONVERGED AFTER  11 CYCLES          *
               *****************************************************

Setting up the final grid:

General Integration Accuracy     IntAcc      ...  4.670
Radial Grid Type                 RadialGrid  ... Gauss-Chebyshev
Angular Grid (max. acc.)         AngularGrid ... Lebedev-302
Angular grid pruning method      GridPruning ... 3 (G Style)
Weight generation scheme         WeightScheme... Becke
Basis function cutoff            BFCut       ...    1.0000e-10
Integration weight cutoff        WCut        ...    1.0000e-14
Grids for H and He will be reduced by one unit

# of grid points (after initial pruning)     ...  80818 (   0.0 sec)
# of grid points (after weights+screening)   ...  72863 (   0.1 sec)
nearest neighbour list constructed           ...    0.0 sec
Grid point re-assignment to atoms done       ...    0.0 sec
Grid point division into batches done        ...    0.2 sec
Reduced shell lists constructed in    0.5 sec

Total number of grid points                  ...    72863
Total number of batches                      ...     1147
Average number of points per batch           ...       63
Average number of grid points per atom       ...     4048
Average number of shells per batch           ...    55.71 (74.28%)
Average number of basis functions per batch  ...   111.10 (72.61%)
Average number of large shells per batch     ...    43.56 (78.19%)
Average number of large basis fcns per batch ...    84.07 (75.67%)
Maximum spatial batch extension              ...  18.09, 18.38, 16.75 au
Average spatial batch extension              ...   0.93,  0.94,  0.96 au

Final grid set up in    0.6 sec
Final integration                            ... done (   0.5 sec)
Change in XC energy                          ...    -0.000534253
Integrated number of electrons               ...    55.999764330
Previous integrated no of electrons          ...    55.994363388

----------------
TOTAL SCF ENERGY
----------------

Total Energy       :         -326.42896812 Eh           -8882.58380 eV

Components:
Nuclear Repulsion  :          333.31352365 Eh            9069.92208 eV
Electronic Energy  :         -659.74249177 Eh          -17952.50589 eV

One Electron Energy:        -1102.85553732 Eh          -30010.22486 eV
Two Electron Energy:          443.11304555 Eh           12057.71897 eV

Virial components:
Potential Energy   :         -649.74379434 Eh          -17680.42750 eV
Kinetic Energy     :          323.31482622 Eh            8797.84370 eV
Virial Ratio       :            2.00963192


DFT components:
N(Alpha)           :       27.999882165219 electrons
N(Beta)            :       27.999882165219 electrons
N(Total)           :       55.999764330439 electrons
E(X)               :      -44.486314744405 Eh       
E(C)               :       -1.871292026860 Eh       
E(XC)              :      -46.357606771265 Eh       

---------------
SCF CONVERGENCE
---------------

  Last Energy change         ...   -4.8512e-08  Tolerance :   1.0000e-06
  Last MAX-Density change    ...    1.9895e-05  Tolerance :   1.0000e-05
  Last RMS-Density change    ...    5.5250e-07  Tolerance :   1.0000e-06
  Last Orbital Gradient      ...    2.2665e-06  Tolerance :   5.0000e-05
  Last Orbital Rotation      ...    5.4060e-06  Tolerance :   5.0000e-05

             **** THE GBW FILE WAS UPDATED (5637.gbw) ****
             **** DENSITY FILE WAS UPDATED (5637.scfp.tmp) ****
             **** ENERGY FILE WAS UPDATED (5637.en.tmp) ****

                    ********************************
                    * MULLIKEN POPULATION ANALYSIS *
                    ********************************

-----------------------
MULLIKEN ATOMIC CHARGES
-----------------------
   0 C :    0.069653
   1 N :   -0.226603
   2 C :   -0.260130
   3 C :    0.122200
   4 C :    0.020599
   5 C :    0.109873
   6 O :   -0.230456
   7 H :    0.027040
   8 H :    0.012204
   9 H :    0.030081
  10 H :    0.109663
  11 H :    0.019299
  12 H :    0.013915
  13 H :    0.002620
  14 H :    0.017058
  15 H :    0.015460
  16 H :    0.008561
  17 H :    0.138965
Sum of atomic charges:   -0.0000000

--------------------------------
MULLIKEN REDUCED ORBITAL CHARGES
--------------------------------
  0 C s       :     2.979626  s :     2.979626
      pz      :     0.901675  p :     2.911056
      px      :     0.980236
      py      :     1.029145
      dz2     :     0.011613  d :     0.039665
      dxz     :     0.011501
      dyz     :     0.005672
      dx2y2   :     0.002601
      dxy     :     0.008278
  1 N s       :     3.427555  s :     3.427555
      pz      :     1.377022  p :     3.775932
      px      :     1.326738
      py      :     1.072171
      dz2     :     0.005142  d :     0.023115
      dxz     :     0.003479
      dyz     :     0.003681
      dx2y2   :     0.003332
      dxy     :     0.007482
  2 C s       :     3.144520  s :     3.144520
      pz      :     1.023008  p :     3.048725
      px      :     1.068498
      py      :     0.957219
      dz2     :     0.013585  d :     0.066885
      dxz     :     0.012389
      dyz     :     0.014043
      dx2y2   :     0.011736
      dxy     :     0.015132
  3 C s       :     2.917371  s :     2.917371
      pz      :     0.971972  p :     2.935269
      px      :     0.981353
      py      :     0.981944
      dz2     :     0.007773  d :     0.025160
      dxz     :     0.006487
      dyz     :     0.001415
      dx2y2   :     0.002227
      dxy     :     0.007257
  4 C s       :     3.037907  s :     3.037907
      pz      :     0.917316  p :     2.911028
      px      :     0.950163
      py      :     1.043549
      dz2     :     0.006922  d :     0.030467
      dxz     :     0.007374
      dyz     :     0.006555
      dx2y2   :     0.004425
      dxy     :     0.005191
  5 C s       :     3.087006  s :     3.087006
      pz      :     0.995293  p :     2.729810
      px      :     0.781244
      py      :     0.953273
      dz2     :     0.009397  d :     0.073311
      dxz     :     0.019657
      dyz     :     0.009039
      dx2y2   :     0.018891
      dxy     :     0.016327
  6 O s       :     3.698354  s :     3.698354
      pz      :     1.800220  p :     4.518840
      px      :     1.372641
      py      :     1.345980
      dz2     :     0.002079  d :     0.013261
      dxz     :     0.002758
      dyz     :     0.000801
      dx2y2   :     0.005843
      dxy     :     0.001780
  7 H s       :     0.950494  s :     0.950494
      pz      :     0.004082  p :     0.022466
      px      :     0.008282
      py      :     0.010102
  8 H s       :     0.965109  s :     0.965109
      pz      :     0.009705  p :     0.022687
      px      :     0.006831
      py      :     0.006151
  9 H s       :     0.947231  s :     0.947231
      pz      :     0.004373  p :     0.022688
      px      :     0.007650
      py      :     0.010664
 10 H s       :     0.846243  s :     0.846243
      pz      :     0.013539  p :     0.044094
      px      :     0.013373
      py      :     0.017182
 11 H s       :     0.956564  s :     0.956564
      pz      :     0.011076  p :     0.024137
      px      :     0.007175
      py      :     0.005886
 12 H s       :     0.962276  s :     0.962276
      pz      :     0.005005  p :     0.023809
      px      :     0.008968
      py      :     0.009836
 13 H s       :     0.973148  s :     0.973148
      pz      :     0.005141  p :     0.024232
      px      :     0.007532
      py      :     0.011559
 14 H s       :     0.959087  s :     0.959087
      pz      :     0.004257  p :     0.023855
      px      :     0.012355
      py      :     0.007243
 15 H s       :     0.960758  s :     0.960758
      pz      :     0.010792  p :     0.023782
      px      :     0.005278
      py      :     0.007712
 16 H s       :     0.969572  s :     0.969572
      pz      :     0.007067  p :     0.021867
      px      :     0.002567
      py      :     0.012233
 17 H s       :     0.787856  s :     0.787856
      pz      :     0.018878  p :     0.073179
      px      :     0.015822
      py      :     0.038479


                     *******************************
                     * LOEWDIN POPULATION ANALYSIS *
                     *******************************

----------------------
LOEWDIN ATOMIC CHARGES
----------------------
   0 C :   -0.005069
   1 N :   -0.070359
   2 C :   -0.056329
   3 C :   -0.059497
   4 C :   -0.064349
   5 C :    0.041065
   6 O :   -0.097158
   7 H :    0.024926
   8 H :    0.004735
   9 H :    0.026328
  10 H :    0.058647
  11 H :    0.026428
  12 H :    0.025047
  13 H :    0.030499
  14 H :    0.024183
  15 H :    0.026815
  16 H :    0.015692
  17 H :    0.048397

-------------------------------
LOEWDIN REDUCED ORBITAL CHARGES
-------------------------------
  0 C s       :     2.835061  s :     2.835061
      pz      :     0.971695  p :     3.071548
      px      :     1.023845
      py      :     1.076009
      dz2     :     0.029376  d :     0.098460
      dxz     :     0.028949
      dyz     :     0.013129
      dx2y2   :     0.005071
      dxy     :     0.021937
  1 N s       :     3.107559  s :     3.107559
      pz      :     1.396692  p :     3.907605
      px      :     1.358839
      py      :     1.152075
      dz2     :     0.011300  d :     0.055195
      dxz     :     0.008260
      dyz     :     0.008768
      dx2y2   :     0.008032
      dxy     :     0.018835
  2 C s       :     2.818412  s :     2.818412
      pz      :     1.035734  p :     3.078722
      px      :     1.064020
      py      :     0.978968
      dz2     :     0.031741  d :     0.159195
      dxz     :     0.031517
      dyz     :     0.032263
      dx2y2   :     0.025120
      dxy     :     0.038554
  3 C s       :     2.836404  s :     2.836404
      pz      :     1.040530  p :     3.150457
      px      :     1.046248
      py      :     1.063679
      dz2     :     0.021484  d :     0.072636
      dxz     :     0.020359
      dyz     :     0.003475
      dx2y2   :     0.006242
      dxy     :     0.021076
  4 C s       :     2.834890  s :     2.834890
      pz      :     0.992872  p :     3.143068
      px      :     1.041999
      py      :     1.108197
      dz2     :     0.020274  d :     0.086391
      dxz     :     0.019391
      dyz     :     0.018980
      dx2y2   :     0.012102
      dxy     :     0.015645
  5 C s       :     2.817797  s :     2.817797
      pz      :     1.064856  p :     2.968080
      px      :     0.876527
      py      :     1.026697
      dz2     :     0.019462  d :     0.173058
      dxz     :     0.046457
      dyz     :     0.024042
      dx2y2   :     0.047618
      dxy     :     0.035480
  6 O s       :     3.433729  s :     3.433729
      pz      :     1.778743  p :     4.637593
      px      :     1.421063
      py      :     1.437787
      dz2     :     0.003988  d :     0.025837
      dxz     :     0.005145
      dyz     :     0.000592
      dx2y2   :     0.013255
      dxy     :     0.002857
  7 H s       :     0.909934  s :     0.909934
      pz      :     0.012269  p :     0.065140
      px      :     0.024117
      py      :     0.028754
  8 H s       :     0.928105  s :     0.928105
      pz      :     0.031793  p :     0.067160
      px      :     0.020374
      py      :     0.014993
  9 H s       :     0.908175  s :     0.908175
      pz      :     0.012681  p :     0.065497
      px      :     0.021770
      py      :     0.031046
 10 H s       :     0.815429  s :     0.815429
      pz      :     0.036607  p :     0.125924
      px      :     0.040520
      py      :     0.048797
 11 H s       :     0.906141  s :     0.906141
      pz      :     0.034001  p :     0.067431
      px      :     0.020213
      py      :     0.013217
 12 H s       :     0.908272  s :     0.908272
      pz      :     0.013250  p :     0.066681
      px      :     0.025997
      py      :     0.027433
 13 H s       :     0.902234  s :     0.902234
      pz      :     0.013741  p :     0.067267
      px      :     0.020244
      py      :     0.033281
 14 H s       :     0.903327  s :     0.903327
      pz      :     0.012540  p :     0.072490
      px      :     0.037810
      py      :     0.022140
 15 H s       :     0.900428  s :     0.900428
      pz      :     0.032905  p :     0.072757
      px      :     0.015241
      py      :     0.024610
 16 H s       :     0.915198  s :     0.915198
      pz      :     0.020949  p :     0.069110
      px      :     0.010126
      py      :     0.038035
 17 H s       :     0.759504  s :     0.759504
      pz      :     0.049468  p :     0.192099
      px      :     0.036661
      py      :     0.105970


                      *****************************
                      * MAYER POPULATION ANALYSIS *
                      *****************************

  NA   - Mulliken gross atomic population
  ZA   - Total nuclear charge
  QA   - Mulliken gross atomic charge
  VA   - Mayer's total valence
  BVA  - Mayer's bonded valence
  FA   - Mayer's free valence

  ATOM       NA         ZA         QA         VA         BVA        FA
  0 C      5.9303     6.0000     0.0697     3.9593     3.9593     0.0000
  1 N      7.2266     7.0000    -0.2266     3.2243     3.2243     0.0000
  2 C      6.2601     6.0000    -0.2601     4.1511     4.1511    -0.0000
  3 C      5.8778     6.0000     0.1222     3.8963     3.8963     0.0000
  4 C      5.9794     6.0000     0.0206     3.8376     3.8376    -0.0000
  5 C      5.8901     6.0000     0.1099     4.0092     4.0092    -0.0000
  6 O      8.2305     8.0000    -0.2305     2.1897     2.1897    -0.0000
  7 H      0.9730     1.0000     0.0270     0.9884     0.9884     0.0000
  8 H      0.9878     1.0000     0.0122     0.9837     0.9837     0.0000
  9 H      0.9699     1.0000     0.0301     1.0008     1.0008     0.0000
 10 H      0.8903     1.0000     0.1097     0.9894     0.9894     0.0000
 11 H      0.9807     1.0000     0.0193     0.9975     0.9975     0.0000
 12 H      0.9861     1.0000     0.0139     0.9947     0.9947    -0.0000
 13 H      0.9974     1.0000     0.0026     1.0029     1.0029    -0.0000
 14 H      0.9829     1.0000     0.0171     0.9904     0.9904     0.0000
 15 H      0.9845     1.0000     0.0155     1.0116     1.0116    -0.0000
 16 H      0.9914     1.0000     0.0086     0.9913     0.9913    -0.0000
 17 H      0.8610     1.0000     0.1390     1.0879     1.0879     0.0000

  Mayer bond orders larger than 0.1
B(  0-C ,  1-N ) :   1.0359 B(  0-C ,  7-H ) :   0.9702 B(  0-C ,  8-H ) :   0.9511 
B(  0-C ,  9-H ) :   0.9661 B(  1-N ,  2-C ) :   1.1065 B(  1-N , 10-H ) :   0.9405 
B(  1-N , 17-H ) :   0.1103 B(  2-C ,  3-C ) :   1.0585 B(  2-C ,  4-C ) :   0.9606 
B(  2-C ,  5-C ) :   0.8797 B(  3-C , 11-H ) :   0.9496 B(  3-C , 12-H ) :   0.9492 
B(  3-C , 13-H ) :   0.9327 B(  4-C ,  5-C ) :   0.9708 B(  4-C , 14-H ) :   0.9305 
B(  4-C , 15-H ) :   0.9222 B(  5-C ,  6-O ) :   1.1621 B(  5-C , 16-H ) :   0.9519 
B(  6-O , 17-H ) :   0.9346 


 *********************************** NBO 6.0 ***********************************
             N A T U R A L   A T O M I C   O R B I T A L   A N D
          N A T U R A L   B O N D   O R B I T A L   A N A L Y S I S
 ***************************** Kiya KiyaLu (100703) ****************************
  (c) Copyright 1996-2015 Board of Regents of the University of Wisconsin System
      on behalf of the Theoretical Chemistry Institute.  All rights reserved.

          Cite this program as:

          NBO 6.0.  E. D. Glendening, J. K. Badenhoop, A. E. Reed,
          J. E. Carpenter, J. A. Bohmann, C. M. Morales, C. R. Landis,
          and F. Weinhold (Theoretical Chemistry Institute, University
          of Wisconsin, Madison, WI, 2013); http://nbo6.chem.wisc.edu/

       /NPA    / : Natural Population Analysis
       /NBO    / : Natural Bond Orbital Analysis
       /AONBO  / : Write the AO to NBO transformation to lfn77
       /FILE   / : Set to 5637

 Filename set to 5637

 Job title:  *** NBO job generated by orca_scf

 Warning: MOs are non-orthogonal; program will continue

 Warning: -2039.52548 electrons reside outside the linearly independent MO space


 NATURAL POPULATIONS:  Natural atomic orbital occupancies

  NAO Atom No lang   Type(AO)    Occupancy      Energy
 -------------------------------------------------------
   1    C  1  s      Cor( 1s)     1.99928      -9.80815
   2    C  1  s      Val( 2s)     1.07017      -0.21622
   3    C  1  s      Ryd( 3s)     0.00101       0.78538
   4    C  1  px     Val( 2p)     1.12353      -0.07459
   5    C  1  px     Ryd( 3p)     0.00138       0.56210
   6    C  1  py     Val( 2p)     1.22223      -0.07693
   7    C  1  py     Ryd( 3p)     0.00239       0.60049
   8    C  1  pz     Val( 2p)     1.00642      -0.06273
   9    C  1  pz     Ryd( 3p)     0.00255       0.46456
  10    C  1  dxy    Ryd( 3d)     0.00081       2.36713
  11    C  1  dxz    Ryd( 3d)     0.00108       2.27152
  12    C  1  dyz    Ryd( 3d)     0.00051       2.12265
  13    C  1  dx2y2  Ryd( 3d)     0.00032       2.02723
  14    C  1  dz2    Ryd( 3d)     0.00111       2.18758

  15    N  2  s      Cor( 1s)     1.99929     -13.83928
  16    N  2  s      Val( 2s)     1.30270      -0.47488
  17    N  2  s      Ryd( 3s)     0.00139       1.08934
  18    N  2  px     Val( 2p)     1.51523      -0.19124
  19    N  2  px     Ryd( 3p)     0.00340       1.02649
  20    N  2  py     Val( 2p)     1.34364      -0.18743
  21    N  2  py     Ryd( 3p)     0.00291       1.04912
  22    N  2  pz     Val( 2p)     1.54716      -0.19709
  23    N  2  pz     Ryd( 3p)     0.00436       0.99852
  24    N  2  dxy    Ryd( 3d)     0.00122       2.75372
  25    N  2  dxz    Ryd( 3d)     0.00093       2.47822
  26    N  2  dyz    Ryd( 3d)     0.00050       2.42643
  27    N  2  dx2y2  Ryd( 3d)     0.00045       2.41113
  28    N  2  dz2    Ryd( 3d)     0.00104       2.51146

  29    C  3  s      Cor( 1s)     1.99881      -9.80438
  30    C  3  s      Val( 2s)     0.80994      -0.13830
  31    C  3  s      Ryd( 3s)     0.00297       0.75946
  32    C  3  px     Val( 2p)     1.06792      -0.07431
  33    C  3  px     Ryd( 3p)     0.00258       0.74018
  34    C  3  py     Val( 2p)     0.94593      -0.07194
  35    C  3  py     Ryd( 3p)     0.00308       0.66885
  36    C  3  pz     Val( 2p)     1.06216      -0.08742
  37    C  3  pz     Ryd( 3p)     0.00600       0.81293
  38    C  3  dxy    Ryd( 3d)     0.00139       2.19905
  39    C  3  dxz    Ryd( 3d)     0.00113       2.17691
  40    C  3  dyz    Ryd( 3d)     0.00144       2.09527
  41    C  3  dx2y2  Ryd( 3d)     0.00102       2.03352
  42    C  3  dz2    Ryd( 3d)     0.00123       2.16485

  43    C  4  s      Cor( 1s)     1.99912      -9.76835
  44    C  4  s      Val( 2s)     1.07747      -0.20894
  45    C  4  s      Ryd( 3s)     0.00071       0.83143
  46    C  4  px     Val( 2p)     1.18397      -0.06920
  47    C  4  px     Ryd( 3p)     0.00186       0.55543
  48    C  4  py     Val( 2p)     1.23751      -0.07155
  49    C  4  py     Ryd( 3p)     0.00287       0.60049
  50    C  4  pz     Val( 2p)     1.16224      -0.06707
  51    C  4  pz     Ryd( 3p)     0.00214       0.51809
  52    C  4  dxy    Ryd( 3d)     0.00070       2.37986
  53    C  4  dxz    Ryd( 3d)     0.00061       2.28233
  54    C  4  dyz    Ryd( 3d)     0.00012       2.02014
  55    C  4  dx2y2  Ryd( 3d)     0.00024       2.08526
  56    C  4  dz2    Ryd( 3d)     0.00068       2.28886

  57    C  5  s      Cor( 1s)     1.99900      -9.76369
  58    C  5  s      Val( 2s)     1.00849      -0.18087
  59    C  5  s      Ryd( 3s)     0.00112       0.73053
  60    C  5  px     Val( 2p)     1.17136      -0.05920
  61    C  5  px     Ryd( 3p)     0.00473       0.66466
  62    C  5  py     Val( 2p)     1.18834      -0.07232
  63    C  5  py     Ryd( 3p)     0.00218       0.59603
  64    C  5  pz     Val( 2p)     1.09249      -0.05835
  65    C  5  pz     Ryd( 3p)     0.00380       0.54802
  66    C  5  dxy    Ryd( 3d)     0.00061       2.21406
  67    C  5  dxz    Ryd( 3d)     0.00104       2.15381
  68    C  5  dyz    Ryd( 3d)     0.00074       2.20097
  69    C  5  dx2y2  Ryd( 3d)     0.00044       2.08686
  70    C  5  dz2    Ryd( 3d)     0.00079       2.23222

  71    C  6  s      Cor( 1s)     1.99876      -9.82176
  72    C  6  s      Val( 2s)     0.86932      -0.15002
  73    C  6  s      Ryd( 3s)     0.00290       0.67080
  74    C  6  px     Val( 2p)     0.77603      -0.04914
  75    C  6  px     Ryd( 3p)     0.00835       0.57872
  76    C  6  py     Val( 2p)     1.12048      -0.05875
  77    C  6  py     Ryd( 3p)     0.00572       0.69170
  78    C  6  pz     Val( 2p)     1.07969      -0.07056
  79    C  6  pz     Ryd( 3p)     0.00269       0.59209
  80    C  6  dxy    Ryd( 3d)     0.00191       2.15559
  81    C  6  dxz    Ryd( 3d)     0.00199       2.09753
  82    C  6  dyz    Ryd( 3d)     0.00090       2.16974
  83    C  6  dx2y2  Ryd( 3d)     0.00164       2.29883
  84    C  6  dz2    Ryd( 3d)     0.00112       1.97985

  85    O  7  s      Cor( 1s)     1.99974     -18.54195
  86    O  7  s      Val( 2s)     1.65593      -0.76642
  87    O  7  s      Ryd( 3s)     0.00061       1.54150
  88    O  7  px     Val( 2p)     1.56585      -0.24657
  89    O  7  px     Ryd( 3p)     0.00221       1.07671
  90    O  7  py     Val( 2p)     1.61545      -0.23315
  91    O  7  py     Ryd( 3p)     0.00204       1.21803
  92    O  7  pz     Val( 2p)     1.87931      -0.22100
  93    O  7  pz     Ryd( 3p)     0.00216       1.04609
  94    O  7  dxy    Ryd( 3d)     0.00098       2.81633
  95    O  7  dxz    Ryd( 3d)     0.00086       2.80926
  96    O  7  dyz    Ryd( 3d)     0.00072       2.70675
  97    O  7  dx2y2  Ryd( 3d)     0.00177       3.23705
  98    O  7  dz2    Ryd( 3d)     0.00102       2.89492

  99    H  8  s      Val( 1s)     0.77850       0.06196
 100    H  8  s      Ryd( 2s)     0.00105       0.30948
 101    H  8  px     Ryd( 2p)     0.00042       1.92995
 102    H  8  py     Ryd( 2p)     0.00052       2.06235
 103    H  8  pz     Ryd( 2p)     0.00012       1.69697

 104    H  9  s      Val( 1s)     0.80857       0.05048
 105    H  9  s      Ryd( 2s)     0.00298       0.36045
 106    H  9  px     Ryd( 2p)     0.00034       1.86216
 107    H  9  py     Ryd( 2p)     0.00020       1.79100
 108    H  9  pz     Ryd( 2p)     0.00053       2.07380

 109    H 10  s      Val( 1s)     0.77938       0.06195
 110    H 10  s      Ryd( 2s)     0.00278       0.35079
 111    H 10  px     Ryd( 2p)     0.00035       1.90658
 112    H 10  py     Ryd( 2p)     0.00058       2.07844
 113    H 10  pz     Ryd( 2p)     0.00014       1.71683

 114    H 11  s      Val( 1s)     0.62100       0.08279
 115    H 11  s      Ryd( 2s)     0.00457       0.40168
 116    H 11  px     Ryd( 2p)     0.00065       1.90371
 117    H 11  py     Ryd( 2p)     0.00090       2.16471
 118    H 11  pz     Ryd( 2p)     0.00064       1.79681

 119    H 12  s      Val( 1s)     0.77127       0.06530
 120    H 12  s      Ryd( 2s)     0.00171       0.37122
 121    H 12  px     Ryd( 2p)     0.00029       1.86050
 122    H 12  py     Ryd( 2p)     0.00017       1.74614
 123    H 12  pz     Ryd( 2p)     0.00063       2.17897

 124    H 13  s      Val( 1s)     0.77522       0.06130
 125    H 13  s      Ryd( 2s)     0.00321       0.33696
 126    H 13  px     Ryd( 2p)     0.00043       2.00414
 127    H 13  py     Ryd( 2p)     0.00049       2.05282
 128    H 13  pz     Ryd( 2p)     0.00014       1.74143

 129    H 14  s      Val( 1s)     0.76467       0.06317
 130    H 14  s      Ryd( 2s)     0.00147       0.35043
 131    H 14  px     Ryd( 2p)     0.00033       1.88073
 132    H 14  py     Ryd( 2p)     0.00062       2.17368
 133    H 14  pz     Ryd( 2p)     0.00015       1.70777

 134    H 15  s      Val( 1s)     0.76888       0.07940
 135    H 15  s      Ryd( 2s)     0.00207       0.33011
 136    H 15  px     Ryd( 2p)     0.00073       2.23298
 137    H 15  py     Ryd( 2p)     0.00034       1.82093
 138    H 15  pz     Ryd( 2p)     0.00010       1.78244

 139    H 16  s      Val( 1s)     0.76325       0.08030
 140    H 16  s      Ryd( 2s)     0.00329       0.33105
 141    H 16  px     Ryd( 2p)     0.00020       1.82486
 142    H 16  py     Ryd( 2p)     0.00034       1.85431
 143    H 16  pz     Ryd( 2p)     0.00059       2.15454

 144    H 17  s      Val( 1s)     0.78889       0.08442
 145    H 17  s      Ryd( 2s)     0.00185       0.32397
 146    H 17  px     Ryd( 2p)     0.00011       1.84258
 147    H 17  py     Ryd( 2p)     0.00080       2.21071
 148    H 17  pz     Ryd( 2p)     0.00036       1.80528

 149    H 18  s      Val( 1s)     0.52621       0.09829
 150    H 18  s      Ryd( 2s)     0.00451       0.47573
 151    H 18  px     Ryd( 2p)     0.00105       1.82327
 152    H 18  py     Ryd( 2p)     0.00191       2.47003
 153    H 18  pz     Ryd( 2p)     0.00133       1.70566

   1 low occupancy (<1.9990e) core orbital  found on  C  3
   1 low occupancy (<1.9990e) core orbital  found on  C  5
   1 low occupancy (<1.9990e) core orbital  found on  C  6


 Summary of Natural Population Analysis:

                                     Natural Population
             Natural    ---------------------------------------------
  Atom No    Charge        Core      Valence    Rydberg      Total
 --------------------------------------------------------------------
    C  1   -0.43280      1.99928     4.42236    0.01116     6.43280
    N  2   -0.72422      1.99929     5.70873    0.01620     7.72422
    C  3    0.09440      1.99881     3.88595    0.02083     5.90560
    C  4   -0.67023      1.99912     4.66119    0.00992     6.67023
    C  5   -0.47512      1.99900     4.46068    0.01544     6.47512
    C  6    0.12849      1.99876     3.84552    0.02723     5.87151
    O  7   -0.72864      1.99974     6.71654    0.01236     8.72864
    H  8    0.21940      0.00000     0.77850    0.00210     0.78060
    H  9    0.18737      0.00000     0.80857    0.00406     0.81263
    H 10    0.21676      0.00000     0.77938    0.00386     0.78324
    H 11    0.37224      0.00000     0.62100    0.00676     0.62776
    H 12    0.22592      0.00000     0.77127    0.00281     0.77408
    H 13    0.22052      0.00000     0.77522    0.00427     0.77948
    H 14    0.23274      0.00000     0.76467    0.00258     0.76726
    H 15    0.22788      0.00000     0.76888    0.00324     0.77212
    H 16    0.23232      0.00000     0.76325    0.00443     0.76768
    H 17    0.20799      0.00000     0.78889    0.00312     0.79201
    H 18    0.46499      0.00000     0.52621    0.00880     0.53501
 ====================================================================
 * Total *  0.00000     13.99400    41.84682    0.15918    56.00000

                                 Natural Population
 ---------------------------------------------------------
   Core                      13.99400 ( 99.9571% of   14)
   Valence                   41.84682 ( 99.6353% of   42)
   Natural Minimal Basis     55.84082 ( 99.7158% of   56)
   Natural Rydberg Basis      0.15918 (  0.2842% of   56)
 ---------------------------------------------------------

    Atom No         Natural Electron Configuration
 ----------------------------------------------------------------------------
      C  1      [core]2s( 1.07)2p( 3.35)3p( 0.01)
      N  2      [core]2s( 1.30)2p( 4.41)3p( 0.01)
      C  3      [core]2s( 0.81)2p( 3.08)3p( 0.01)3d( 0.01)
      C  4      [core]2s( 1.08)2p( 3.58)3p( 0.01)
      C  5      [core]2s( 1.01)2p( 3.45)3p( 0.01)
      C  6      [core]2s( 0.87)2p( 2.98)3p( 0.02)3d( 0.01)
      O  7      [core]2s( 1.66)2p( 5.06)3p( 0.01)3d( 0.01)
      H  8            1s( 0.78)
      H  9            1s( 0.81)
      H 10            1s( 0.78)
      H 11            1s( 0.62)
      H 12            1s( 0.77)
      H 13            1s( 0.78)
      H 14            1s( 0.76)
      H 15            1s( 0.77)
      H 16            1s( 0.76)
      H 17            1s( 0.79)
      H 18            1s( 0.53)


 NATURAL BOND ORBITAL ANALYSIS:

                            Occupancies       Lewis Structure    Low   High
         Max    Occ     -------------------  -----------------   occ   occ
  Cycle  Ctr   Thresh    Lewis   non-Lewis     CR  BD  nC  LP    (L)   (NL)
 ============================================================================
    1     2     1.90    55.36279   0.63721      7  18   0   3     1      0
    2     2     1.88    55.38847   0.61153      7  18   0   3     0      0
    3     2     1.54    55.38847   0.61153      7  18   0   3     0      0
    4     2     1.88    55.38847   0.61153      7  18   0   3     0      0
 ----------------------------------------------------------------------------

 Structure accepted: No low occupancy Lewis orbitals

 -------------------------------------------------------
   Core                     13.99400 ( 99.957% of  14)
   Valence Lewis            41.39447 ( 98.558% of  42)
  ==================      =============================
   Total Lewis              55.38847 ( 98.908% of  56)
  -----------------------------------------------------
   Valence non-Lewis         0.50251 (  0.897% of  56)
   Rydberg non-Lewis         0.10902 (  0.195% of  56)
  ==================      =============================
   Total non-Lewis           0.61153 (  1.092% of  56)
 -------------------------------------------------------


     (Occupancy)   Bond orbital / Coefficients / Hybrids
 ------------------ Lewis ------------------------------------------------------
   1. (1.99928) CR ( 1) C  1            s(100.00%)
                                         1.0000  0.0000  0.0000  0.0000  0.0000
                                         0.0000  0.0000  0.0000  0.0000  0.0000
                                         0.0000  0.0000  0.0000  0.0000
   2. (1.99929) CR ( 1) N  2            s(100.00%)
                                         1.0000  0.0000  0.0000  0.0000  0.0000
                                         0.0000  0.0000  0.0000  0.0000  0.0000
                                         0.0000  0.0000  0.0000  0.0000
   3. (1.99881) CR ( 1) C  3            s(100.00%)
                                         1.0000  0.0000  0.0000  0.0000  0.0000
                                         0.0000  0.0000  0.0000  0.0000  0.0000
                                         0.0000  0.0000  0.0000  0.0000
   4. (1.99912) CR ( 1) C  4            s(100.00%)
                                         1.0000  0.0000  0.0000  0.0000  0.0000
                                         0.0000  0.0000  0.0000  0.0000  0.0000
                                         0.0000  0.0000  0.0000  0.0000
   5. (1.99900) CR ( 1) C  5            s(100.00%)
                                         1.0000  0.0000  0.0000  0.0000  0.0000
                                         0.0000  0.0000  0.0000  0.0000  0.0000
                                         0.0000  0.0000  0.0000  0.0000
   6. (1.99876) CR ( 1) C  6            s(100.00%)
                                         1.0000  0.0000  0.0000  0.0000  0.0000
                                         0.0000  0.0000  0.0000  0.0000  0.0000
                                         0.0000  0.0000  0.0000  0.0000
   7. (1.99974) CR ( 1) O  7            s(100.00%)
                                         1.0000  0.0000  0.0000  0.0000  0.0000
                                         0.0000  0.0000  0.0000  0.0000  0.0000
                                         0.0000  0.0000  0.0000  0.0000
   8. (1.88943) LP ( 1) N  2            s( 12.98%)p 6.70( 86.99%)d 0.00(  0.03%)
                                         0.0000  0.3601 -0.0101 -0.6163 -0.0211
                                        -0.1592 -0.0148 -0.6808 -0.0220 -0.0030
                                        -0.0155 -0.0033 -0.0066 -0.0054
   9. (1.97086) LP ( 1) O  7            s( 45.20%)p 1.21( 54.75%)d 0.00(  0.04%)
                                         0.0000  0.6723 -0.0099 -0.5032  0.0071
                                        -0.5169  0.0057 -0.1644  0.0027 -0.0188
                                        -0.0036 -0.0063  0.0009  0.0052
  10. (1.92759) LP ( 2) O  7            s(  0.08%)p99.99( 99.85%)d 0.80(  0.07%)
                                         0.0000  0.0285  0.0007  0.3265 -0.0068
                                         0.0195  0.0008 -0.9441  0.0165  0.0063
                                        -0.0129 -0.0174  0.0049 -0.0110
  11. (1.98900) BD ( 1) C  1- N  2
               ( 38.69%)   0.6220* C  1 s( 25.23%)p 2.96( 74.65%)d 0.00(  0.12%)
                                         0.0000  0.5021  0.0165  0.4752  0.0019
                                        -0.1789  0.0140 -0.6977 -0.0412 -0.0065
                                        -0.0267  0.0094  0.0067  0.0170
               ( 61.31%)   0.7830* N  2 s( 30.75%)p 2.25( 69.19%)d 0.00(  0.06%)
                                         0.0000  0.5545  0.0078 -0.4603  0.0212
                                         0.1962 -0.0179  0.6639 -0.0008 -0.0031
                                        -0.0142  0.0065 -0.0039  0.0176
  12. (1.98829) BD ( 1) C  1- H  8
               ( 61.06%)   0.7814* C  1 s( 24.34%)p 3.11( 75.61%)d 0.00(  0.04%)
                                         0.0000  0.4933  0.0077 -0.5335  0.0050
                                         0.6627 -0.0113 -0.1792  0.0068 -0.0156
                                         0.0059 -0.0073 -0.0040 -0.0092
               ( 38.94%)   0.6240* H  8 s( 99.91%)p 0.00(  0.09%)
                                         0.9995 -0.0008  0.0202 -0.0223  0.0047
  13. (1.99599) BD ( 1) C  1- H  9
               ( 60.27%)   0.7764* C  1 s( 25.77%)p 2.88( 74.19%)d 0.00(  0.04%)
                                         0.0000  0.5075 -0.0097  0.5122 -0.0165
                                         0.2131  0.0094  0.6586  0.0059  0.0052
                                         0.0162  0.0065  0.0041  0.0077
               ( 39.73%)   0.6303* H  9 s( 99.91%)p 0.00(  0.09%)
                                         0.9995 -0.0069 -0.0153 -0.0076 -0.0249
  14. (1.98897) BD ( 1) C  1- H 10
               ( 61.13%)   0.7818* C  1 s( 24.66%)p 3.05( 75.30%)d 0.00(  0.04%)
                                         0.0000  0.4965 -0.0075 -0.4751 -0.0095
                                        -0.6945  0.0140  0.2111  0.0062  0.0147
                                        -0.0034 -0.0061 -0.0066 -0.0094
               ( 38.87%)   0.6235* H 10 s( 99.90%)p 0.00(  0.10%)
                                         0.9995 -0.0026  0.0185  0.0242 -0.0085
  15. (1.98151) BD ( 1) N  2- C  3
               ( 60.85%)   0.7801* N  2 s( 34.42%)p 1.90( 65.52%)d 0.00(  0.05%)
                                         0.0000  0.5867 -0.0006  0.4751 -0.0087
                                        -0.6544  0.0013  0.0335  0.0064 -0.0179
                                         0.0016 -0.0098 -0.0002 -0.0103
               ( 39.15%)   0.6257* C  3 s( 25.13%)p 2.97( 74.77%)d 0.00(  0.10%)
                                         0.0000  0.5012  0.0118 -0.4804  0.0006
                                         0.7179  0.0266 -0.0279 -0.0075 -0.0264
                                         0.0066 -0.0047 -0.0064 -0.0140
  16. (1.98031) BD ( 1) N  2- H 11
               ( 69.39%)   0.8330* N  2 s( 21.77%)p 3.59( 78.16%)d 0.00(  0.07%)
                                         0.0000  0.4666  0.0066  0.4256  0.0009
                                         0.7116 -0.0222 -0.3051  0.0232  0.0202
                                        -0.0053 -0.0012 -0.0042 -0.0145
               ( 30.61%)   0.5533* H 11 s( 99.80%)p 0.00(  0.20%)
                                         0.9989 -0.0098 -0.0207 -0.0349  0.0193
  17. (1.98288) BD ( 1) C  3- C  4
               ( 50.74%)   0.7123* C  3 s( 32.10%)p 2.11( 67.87%)d 0.00(  0.03%)
                                         0.0000  0.5666 -0.0003  0.4850 -0.0012
                                        -0.0459  0.0151  0.6642 -0.0007 -0.0046
                                         0.0137 -0.0013  0.0040  0.0055
               ( 49.26%)   0.7019* C  4 s( 31.16%)p 2.21( 68.80%)d 0.00(  0.04%)
                                         0.0000  0.5582  0.0006 -0.5109  0.0027
                                         0.0821 -0.0021 -0.6483  0.0006 -0.0024
                                         0.0159 -0.0023  0.0058  0.0073
  18. (1.93435) BD ( 1) C  3- C  5
               ( 51.25%)   0.7159* C  3 s( 21.13%)p 3.73( 78.81%)d 0.00(  0.06%)
                                         0.0000  0.4597 -0.0023  0.4806  0.0019
                                        -0.0285  0.0218 -0.7454  0.0166 -0.0028
                                        -0.0119  0.0107 -0.0006  0.0177
               ( 48.75%)   0.6982* C  5 s( 23.13%)p 3.32( 76.80%)d 0.00(  0.07%)
                                         0.0000  0.4809 -0.0031 -0.0278  0.0173
                                         0.5358  0.0034  0.6926 -0.0117 -0.0059
                                        -0.0138  0.0138 -0.0003  0.0182
  19. (1.93630) BD ( 1) C  3- C  6
               ( 52.03%)   0.7213* C  3 s( 21.52%)p 3.64( 78.43%)d 0.00(  0.06%)
                                         0.0000  0.4636 -0.0162 -0.5500  0.0011
                                        -0.6926  0.0047 -0.0418  0.0195  0.0156
                                         0.0061  0.0130 -0.0080 -0.0070
               ( 47.97%)   0.6926* C  6 s( 24.68%)p 3.05( 75.24%)d 0.00(  0.07%)
                                         0.0000  0.4966 -0.0136  0.1307 -0.0075
                                         0.6294 -0.0288  0.5816  0.0118  0.0153
                                         0.0070  0.0152 -0.0125 -0.0070
  20. (1.98356) BD ( 1) C  4- H 12
               ( 61.41%)   0.7837* C  4 s( 23.03%)p 3.34( 76.93%)d 0.00(  0.04%)
                                         0.0000  0.4799  0.0003 -0.4375  0.0153
                                         0.0154 -0.0047  0.7599  0.0087 -0.0006
                                        -0.0151  0.0001  0.0048  0.0111
               ( 38.59%)   0.6212* H 12 s( 99.91%)p 0.00(  0.09%)
                                         0.9995 -0.0019  0.0145  0.0005 -0.0271
  21. (1.98398) BD ( 1) C  4- H 13
               ( 61.26%)   0.7827* C  4 s( 22.69%)p 3.41( 77.27%)d 0.00(  0.04%)
                                         0.0000  0.4763 -0.0011  0.5913  0.0073
                                         0.6497 -0.0080  0.0263  0.0134  0.0168
                                         0.0000 -0.0003 -0.0022 -0.0101
               ( 38.74%)   0.6224* H 13 s( 99.91%)p 0.00(  0.09%)
                                         0.9995 -0.0035 -0.0209 -0.0216 -0.0007
  22. (1.98218) BD ( 1) C  4- H 14
               ( 61.59%)   0.7848* C  4 s( 23.07%)p 3.33( 76.90%)d 0.00(  0.04%)
                                         0.0000  0.4803  0.0028  0.4442  0.0065
                                        -0.7552  0.0047 -0.0323  0.0146 -0.0142
                                        -0.0012  0.0026 -0.0091 -0.0095
               ( 38.41%)   0.6198* H 14 s( 99.91%)p 0.00(  0.09%)
                                         0.9995 -0.0006 -0.0162  0.0260 -0.0002
  23. (1.95731) BD ( 1) C  5- C  6
               ( 51.74%)   0.7193* C  5 s( 22.05%)p 3.53( 77.88%)d 0.00(  0.06%)
                                         0.0000  0.4696 -0.0001 -0.6094  0.0055
                                        -0.6240 -0.0042  0.1319 -0.0234  0.0133
                                        -0.0167 -0.0108  0.0079 -0.0028
               ( 48.26%)   0.6947* C  6 s( 23.21%)p 3.31( 76.72%)d 0.00(  0.07%)
                                         0.0000  0.4818 -0.0035  0.5473 -0.0035
                                         0.1252 -0.0346 -0.6713 -0.0067  0.0155
                                        -0.0177 -0.0110  0.0060 -0.0036
  24. (1.98154) BD ( 1) C  5- H 15
               ( 61.59%)   0.7848* C  5 s( 27.65%)p 2.62( 72.32%)d 0.00(  0.03%)
                                         0.0000  0.5258 -0.0001  0.7665  0.0010
                                        -0.3634  0.0071 -0.0534 -0.0256 -0.0127
                                         0.0030 -0.0031  0.0084 -0.0073
               ( 38.41%)   0.6198* H 15 s( 99.90%)p 0.00(  0.10%)
                                         0.9995 -0.0028 -0.0286  0.0133  0.0028
  25. (1.97934) BD ( 1) C  5- H 16
               ( 61.81%)   0.7862* C  5 s( 26.96%)p 2.71( 73.01%)d 0.00(  0.03%)
                                         0.0000  0.5193 -0.0008 -0.1990  0.0234
                                         0.4363 -0.0099 -0.7066 -0.0117 -0.0079
                                         0.0087 -0.0125 -0.0012  0.0042
               ( 38.19%)   0.6180* H 16 s( 99.90%)p 0.00(  0.10%)
                                         0.9995 -0.0036  0.0083 -0.0153  0.0266
  26. (1.99308) BD ( 1) C  6- O  7
               ( 33.46%)   0.5784* C  6 s( 23.29%)p 3.29( 76.52%)d 0.01(  0.18%)
                                         0.0000  0.4815  0.0332 -0.8151 -0.0446
                                         0.0701 -0.0328 -0.3046 -0.0074 -0.0117
                                         0.0244 -0.0046  0.0295 -0.0146
               ( 66.54%)   0.8157* O  7 s( 33.10%)p 2.02( 66.82%)d 0.00(  0.09%)
                                         0.0000  0.5752  0.0074  0.7633  0.0044
                                        -0.0846 -0.0127  0.2795  0.0004  0.0068
                                         0.0175  0.0029  0.0186 -0.0131
  27. (1.98107) BD ( 1) C  6- H 17
               ( 61.06%)   0.7814* C  6 s( 28.50%)p 2.51( 71.47%)d 0.00(  0.03%)
                                         0.0000  0.5338 -0.0093  0.1234 -0.0315
                                        -0.7626  0.0023  0.3416 -0.0150 -0.0056
                                         0.0034 -0.0105 -0.0107 -0.0031
               ( 38.94%)   0.6240* H 17 s( 99.89%)p 0.00(  0.11%)
                                         0.9994 -0.0051 -0.0062  0.0297 -0.0143
  28. (1.98694) BD ( 1) O  7- H 18
               ( 74.70%)   0.8643* O  7 s( 21.61%)p 3.62( 78.28%)d 0.01(  0.12%)
                                         0.0000  0.4647  0.0119 -0.2368 -0.0321
                                         0.8500  0.0231 -0.0502 -0.0095  0.0037
                                         0.0008  0.0031 -0.0287 -0.0176
               ( 25.30%)   0.5030* H 18 s( 99.62%)p 0.00(  0.38%)
                                         0.9979 -0.0187  0.0172 -0.0589  0.0040
 ---------------- non-Lewis ----------------------------------------------------
  29. (0.01053) BD*( 1) C  1- N  2
               ( 61.31%)   0.7830* C  1 s( 25.23%)p 2.96( 74.65%)d 0.00(  0.12%)
                                         0.0000  0.5021  0.0165  0.4752  0.0019
                                        -0.1789  0.0140 -0.6977 -0.0412 -0.0065
                                        -0.0267  0.0094  0.0067  0.0170
               ( 38.69%)  -0.6220* N  2 s( 30.75%)p 2.25( 69.19%)d 0.00(  0.06%)
                                         0.0000  0.5545  0.0078 -0.4603  0.0212
                                         0.1962 -0.0179  0.6639 -0.0008 -0.0031
                                        -0.0142  0.0065 -0.0039  0.0176
  30. (0.00821) BD*( 1) C  1- H  8
               ( 38.94%)   0.6240* C  1 s( 24.34%)p 3.11( 75.61%)d 0.00(  0.04%)
                                         0.0000 -0.4933 -0.0077  0.5335 -0.0050
                                        -0.6627  0.0113  0.1792 -0.0068  0.0156
                                        -0.0059  0.0073  0.0040  0.0092
               ( 61.06%)  -0.7814* H  8 s( 99.91%)p 0.00(  0.09%)
                                        -0.9995  0.0008 -0.0202  0.0223 -0.0047
  31. (0.02711) BD*( 1) C  1- H  9
               ( 39.73%)   0.6303* C  1 s( 25.77%)p 2.88( 74.19%)d 0.00(  0.04%)
                                         0.0000 -0.5075  0.0097 -0.5122  0.0165
                                        -0.2131 -0.0094 -0.6586 -0.0059 -0.0052
                                        -0.0162 -0.0065 -0.0041 -0.0077
               ( 60.27%)  -0.7764* H  9 s( 99.91%)p 0.00(  0.09%)
                                        -0.9995  0.0069  0.0153  0.0076  0.0249
  32. (0.01141) BD*( 1) C  1- H 10
               ( 38.87%)   0.6235* C  1 s( 24.66%)p 3.05( 75.30%)d 0.00(  0.04%)
                                         0.0000 -0.4965  0.0075  0.4751  0.0095
                                         0.6945 -0.0140 -0.2111 -0.0062 -0.0147
                                         0.0034  0.0061  0.0066  0.0094
               ( 61.13%)  -0.7818* H 10 s( 99.90%)p 0.00(  0.10%)
                                        -0.9995  0.0026 -0.0185 -0.0242  0.0085
  33. (0.04273) BD*( 1) N  2- C  3
               ( 39.15%)   0.6257* N  2 s( 34.42%)p 1.90( 65.52%)d 0.00(  0.05%)
                                         0.0000 -0.5867  0.0006 -0.4751  0.0087
                                         0.6544 -0.0013 -0.0335 -0.0064  0.0179
                                        -0.0016  0.0098  0.0002  0.0103
               ( 60.85%)  -0.7801* C  3 s( 25.13%)p 2.97( 74.77%)d 0.00(  0.10%)
                                         0.0000 -0.5012 -0.0118  0.4804 -0.0006
                                        -0.7179 -0.0266  0.0279  0.0075  0.0264
                                        -0.0066  0.0047  0.0064  0.0140
  34. (0.02303) BD*( 1) N  2- H 11
               ( 30.61%)   0.5533* N  2 s( 21.77%)p 3.59( 78.16%)d 0.00(  0.07%)
                                         0.0000 -0.4666 -0.0066 -0.4256 -0.0009
                                        -0.7116  0.0222  0.3051 -0.0232 -0.0202
                                         0.0053  0.0012  0.0042  0.0145
               ( 69.39%)  -0.8330* H 11 s( 99.80%)p 0.00(  0.20%)
                                        -0.9989  0.0098  0.0207  0.0349 -0.0193
  35. (0.04221) BD*( 1) C  3- C  4
               ( 49.26%)   0.7019* C  3 s( 32.10%)p 2.11( 67.87%)d 0.00(  0.03%)
                                         0.0000  0.5666 -0.0003  0.4850 -0.0012
                                        -0.0459  0.0151  0.6642 -0.0007 -0.0046
                                         0.0137 -0.0013  0.0040  0.0055
               ( 50.74%)  -0.7123* C  4 s( 31.16%)p 2.21( 68.80%)d 0.00(  0.04%)
                                         0.0000  0.5582  0.0006 -0.5109  0.0027
                                         0.0821 -0.0021 -0.6483  0.0006 -0.0024
                                         0.0159 -0.0023  0.0058  0.0073
  36. (0.04696) BD*( 1) C  3- C  5
               ( 48.75%)   0.6982* C  3 s( 21.13%)p 3.73( 78.81%)d 0.00(  0.06%)
                                         0.0000 -0.4597  0.0023 -0.4806 -0.0019
                                         0.0285 -0.0218  0.7454 -0.0166  0.0028
                                         0.0119 -0.0107  0.0006 -0.0177
               ( 51.25%)  -0.7159* C  5 s( 23.13%)p 3.32( 76.80%)d 0.00(  0.07%)
                                         0.0000 -0.4809  0.0031  0.0278 -0.0173
                                        -0.5358 -0.0034 -0.6926  0.0117  0.0059
                                         0.0138 -0.0138  0.0003 -0.0182
  37. (0.08179) BD*( 1) C  3- C  6
               ( 47.97%)   0.6926* C  3 s( 21.52%)p 3.64( 78.43%)d 0.00(  0.06%)
                                         0.0000 -0.4636  0.0162  0.5500 -0.0011
                                         0.6926 -0.0047  0.0418 -0.0195 -0.0156
                                        -0.0061 -0.0130  0.0080  0.0070
               ( 52.03%)  -0.7213* C  6 s( 24.68%)p 3.05( 75.24%)d 0.00(  0.07%)
                                         0.0000 -0.4966  0.0136 -0.1307  0.0075
                                        -0.6294  0.0288 -0.5816 -0.0118 -0.0153
                                        -0.0070 -0.0152  0.0125  0.0070
  38. (0.01083) BD*( 1) C  4- H 12
               ( 38.59%)   0.6212* C  4 s( 23.03%)p 3.34( 76.93%)d 0.00(  0.04%)
                                         0.0000 -0.4799 -0.0003  0.4375 -0.0153
                                        -0.0154  0.0047 -0.7599 -0.0087  0.0006
                                         0.0151 -0.0001 -0.0048 -0.0111
               ( 61.41%)  -0.7837* H 12 s( 99.91%)p 0.00(  0.09%)
                                        -0.9995  0.0019 -0.0145 -0.0005  0.0271
  39. (0.01209) BD*( 1) C  4- H 13
               ( 38.74%)   0.6224* C  4 s( 22.69%)p 3.41( 77.27%)d 0.00(  0.04%)
                                         0.0000 -0.4763  0.0011 -0.5913 -0.0073
                                        -0.6497  0.0080 -0.0263 -0.0134 -0.0168
                                         0.0000  0.0003  0.0022  0.0101
               ( 61.26%)  -0.7827* H 13 s( 99.91%)p 0.00(  0.09%)
                                        -0.9995  0.0035  0.0209  0.0216  0.0007
  40. (0.00645) BD*( 1) C  4- H 14
               ( 38.41%)   0.6198* C  4 s( 23.07%)p 3.33( 76.90%)d 0.00(  0.04%)
                                         0.0000 -0.4803 -0.0028 -0.4442 -0.0065
                                         0.7552 -0.0047  0.0323 -0.0146  0.0142
                                         0.0012 -0.0026  0.0091  0.0095
               ( 61.59%)  -0.7848* H 14 s( 99.91%)p 0.00(  0.09%)
                                        -0.9995  0.0006  0.0162 -0.0260  0.0002
  41. (0.06462) BD*( 1) C  5- C  6
               ( 48.26%)   0.6947* C  5 s( 22.05%)p 3.53( 77.88%)d 0.00(  0.06%)
                                         0.0000 -0.4696  0.0001  0.6094 -0.0055
                                         0.6240  0.0042 -0.1319  0.0234 -0.0133
                                         0.0167  0.0108 -0.0079  0.0028
               ( 51.74%)  -0.7193* C  6 s( 23.21%)p 3.31( 76.72%)d 0.00(  0.07%)
                                         0.0000 -0.4818  0.0035 -0.5473  0.0035
                                        -0.1252  0.0346  0.6713  0.0067 -0.0155
                                         0.0177  0.0110 -0.0060  0.0036
  42. (0.01373) BD*( 1) C  5- H 15
               ( 38.41%)   0.6198* C  5 s( 27.65%)p 2.62( 72.32%)d 0.00(  0.03%)
                                         0.0000 -0.5258  0.0001 -0.7665 -0.0010
                                         0.3634 -0.0071  0.0534  0.0256  0.0127
                                        -0.0030  0.0031 -0.0084  0.0073
               ( 61.59%)  -0.7848* H 15 s( 99.90%)p 0.00(  0.10%)
                                        -0.9995  0.0028  0.0286 -0.0133 -0.0028
  43. (0.01314) BD*( 1) C  5- H 16
               ( 38.19%)   0.6180* C  5 s( 26.96%)p 2.71( 73.01%)d 0.00(  0.03%)
                                         0.0000 -0.5193  0.0008  0.1990 -0.0234
                                        -0.4363  0.0099  0.7066  0.0117  0.0079
                                        -0.0087  0.0125  0.0012 -0.0042
               ( 61.81%)  -0.7862* H 16 s( 99.90%)p 0.00(  0.10%)
                                        -0.9995  0.0036 -0.0083  0.0153 -0.0266
  44. (0.02412) BD*( 1) C  6- O  7
               ( 66.54%)   0.8157* C  6 s( 23.29%)p 3.29( 76.52%)d 0.01(  0.18%)
                                         0.0000  0.4815  0.0332 -0.8151 -0.0446
                                         0.0701 -0.0328 -0.3046 -0.0074 -0.0117
                                         0.0244 -0.0046  0.0295 -0.0146
               ( 33.46%)  -0.5784* O  7 s( 33.10%)p 2.02( 66.82%)d 0.00(  0.09%)
                                         0.0000  0.5752  0.0074  0.7633  0.0044
                                        -0.0846 -0.0127  0.2795  0.0004  0.0068
                                         0.0175  0.0029  0.0186 -0.0131
  45. (0.03009) BD*( 1) C  6- H 17
               ( 38.94%)   0.6240* C  6 s( 28.50%)p 2.51( 71.47%)d 0.00(  0.03%)
                                         0.0000 -0.5338  0.0093 -0.1234  0.0315
                                         0.7626 -0.0023 -0.3416  0.0150  0.0056
                                        -0.0034  0.0105  0.0107  0.0031
               ( 61.06%)  -0.7814* H 17 s( 99.89%)p 0.00(  0.11%)
                                        -0.9994  0.0051  0.0062 -0.0297  0.0143
  46. (0.03346) BD*( 1) O  7- H 18
               ( 25.30%)   0.5030* O  7 s( 21.61%)p 3.62( 78.28%)d 0.01(  0.12%)
                                         0.0000 -0.4647 -0.0119  0.2368  0.0321
                                        -0.8500 -0.0231  0.0502  0.0095 -0.0037
                                        -0.0008 -0.0031  0.0287  0.0176
               ( 74.70%)  -0.8643* H 18 s( 99.62%)p 0.00(  0.38%)
                                        -0.9979  0.0187 -0.0172  0.0589 -0.0040
  47. (0.00285) RY ( 1) C  1            s( 15.69%)p 4.48( 70.33%)d 0.89( 13.98%)
                                         0.0000  0.0123  0.3959  0.0133  0.4028
                                        -0.0204 -0.7345  0.0191 -0.0246 -0.2066
                                        -0.0659  0.0806  0.0386 -0.2912
  48. (0.00152) RY ( 2) C  1            s(  0.49%)p99.99( 92.89%)d13.53(  6.62%)
                                         0.0000 -0.0109  0.0691 -0.0230 -0.4444
                                         0.0047 -0.2526  0.0215 -0.8165  0.0024
                                         0.0591  0.1165 -0.1203  0.1861
  49. (0.00111) RY ( 3) C  1            s(  2.29%)p12.31( 28.12%)d30.45( 69.59%)
                                         0.0000 -0.0074  0.1510 -0.0020  0.1217
                                         0.0142  0.3231  0.0231 -0.4016  0.1236
                                        -0.3813 -0.4294  0.3445 -0.4819
  50. (0.00040) RY ( 4) C  1            s( 19.52%)p 2.12( 41.38%)d 2.00( 39.10%)
                                         0.0000 -0.0027  0.4418 -0.0143  0.5598
                                         0.0035  0.2455  0.0215 -0.1986  0.2162
                                         0.1040 -0.0730 -0.1268  0.5586
  51. (0.00020) RY ( 5) C  1            s( 13.55%)p 2.59( 35.15%)d 3.79( 51.30%)
                                         0.0000  0.0027  0.3681  0.0131 -0.4255
                                         0.0006 -0.2762 -0.0157  0.3061  0.4400
                                         0.0150 -0.5502 -0.0745  0.1047
  52. (0.00002) RY ( 6) C  1            s(  9.36%)p 0.79(  7.36%)d 8.90( 83.28%)
  53. (0.00001) RY ( 7) C  1            s( 19.98%)p 0.75( 15.04%)d 3.25( 64.98%)
  54. (0.00000) RY ( 8) C  1            s( 15.33%)p 0.43(  6.62%)d 5.09( 78.05%)
  55. (0.00000) RY ( 9) C  1            s(  3.80%)p 0.88(  3.34%)d24.44( 92.86%)
  56. (0.00528) RY ( 1) N  2            s( 12.35%)p 6.88( 84.97%)d 0.22(  2.68%)
                                         0.0000  0.0022  0.3515 -0.0222  0.5013
                                        -0.0140  0.3968 -0.0223  0.6631  0.0008
                                        -0.1200  0.0141 -0.0605 -0.0924
  57. (0.00137) RY ( 2) N  2            s( 13.63%)p 4.17( 56.76%)d 2.17( 29.62%)
                                         0.0000 -0.0155  0.3688 -0.0060 -0.4189
                                        -0.0073 -0.4793  0.0033  0.4028 -0.2754
                                        -0.1035  0.3535  0.2884 -0.0392
  58. (0.00072) RY ( 3) N  2            s(  4.84%)p16.66( 80.65%)d 3.00( 14.51%)
                                         0.0000 -0.0124  0.2197  0.0106  0.6652
                                        -0.0075 -0.4749 -0.0123 -0.3718 -0.2275
                                        -0.0834 -0.0115  0.1473 -0.2541
  59. (0.00036) RY ( 4) N  2            s( 28.34%)p 0.52( 14.62%)d 2.01( 57.04%)
                                         0.0000  0.0060  0.5323  0.0010 -0.1474
                                         0.0114  0.1989 -0.0007 -0.2913 -0.2623
                                         0.3654  0.2200 -0.5581 -0.0904
  60. (0.00025) RY ( 5) N  2            s( 33.18%)p 0.52( 17.41%)d 1.49( 49.41%)
                                         0.0000  0.0049  0.5760 -0.0018 -0.2228
                                         0.0045  0.2378  0.0055 -0.2605  0.2309
                                        -0.1508 -0.4724  0.4404 -0.0299
  61. (0.00017) RY ( 6) N  2            s(  6.33%)p 1.14(  7.23%)d13.65( 86.44%)
                                         0.0000 -0.0005  0.2516  0.0153  0.1645
                                        -0.0252 -0.1773 -0.0147 -0.1126  0.5833
                                        -0.1287  0.3900 -0.1080  0.5864
  62. (0.00014) RY ( 7) N  2            s(  0.53%)p43.47( 23.04%)d99.99( 76.43%)
                                         0.0000 -0.0069  0.0725 -0.0193 -0.0329
                                        -0.0208 -0.4057  0.0122  0.2525  0.5326
                                         0.4794 -0.2851 -0.1887 -0.3658
  63. (0.00005) RY ( 8) N  2            s(  0.81%)p14.41( 11.71%)d99.99( 87.48%)
  64. (0.00002) RY ( 9) N  2            s(  0.06%)p58.20(  3.74%)d99.99( 96.20%)
  65. (0.00596) RY ( 1) C  3            s(  3.42%)p26.48( 90.59%)d 1.75(  5.99%)
                                         0.0000  0.0151  0.1843  0.0025 -0.0910
                                        -0.0182 -0.1716 -0.0158 -0.9314 -0.0136
                                         0.1707  0.1013 -0.1421  0.0104
  66. (0.00369) RY ( 2) C  3            s( 62.71%)p 0.24( 15.07%)d 0.35( 22.22%)
                                         0.0000 -0.0042  0.7919 -0.0035 -0.2905
                                        -0.0081 -0.0424  0.0071  0.2538 -0.1339
                                        -0.0444  0.4049 -0.1414  0.1354
  67. (0.00313) RY ( 3) C  3            s(  5.81%)p14.75( 85.66%)d 1.47(  8.54%)
                                         0.0000  0.0116  0.2407  0.0037  0.7858
                                         0.0005 -0.4771 -0.0059  0.1069 -0.1148
                                         0.2634 -0.0166 -0.0016 -0.0500
  68. (0.00146) RY ( 4) C  3            s(  7.37%)p 9.34( 68.85%)d 3.22( 23.77%)
                                         0.0000 -0.0282  0.2701  0.0014  0.2455
                                        -0.0264  0.7873 -0.0052 -0.0873 -0.1821
                                         0.3700 -0.1253  0.1772 -0.1435
  69. (0.00129) RY ( 5) C  3            s(  0.08%)p99.99( 19.55%)d99.99( 80.37%)
                                         0.0000  0.0080  0.0280 -0.0086 -0.3392
                                        -0.0125 -0.2813 -0.0111  0.0307 -0.4467
                                         0.3002 -0.3500  0.5689  0.2606
  70. (0.00087) RY ( 6) C  3            s(  0.01%)p 1.00(  1.37%)d71.97( 98.62%)
                                         0.0000  0.0004  0.0091  0.0150 -0.0809
                                        -0.0235 -0.0782 -0.0027 -0.0164 -0.6192
                                        -0.3093 -0.1644 -0.2083 -0.6608
  71. (0.00056) RY ( 7) C  3            s(  0.93%)p 0.75(  0.70%)d99.99( 98.37%)
                                         0.0000 -0.0025  0.0965 -0.0045  0.0072
                                        -0.0099  0.0714  0.0015  0.0418 -0.1102
                                        -0.0025 -0.6097 -0.6326  0.4467
  72. (0.00023) RY ( 8) C  3            s(  7.46%)p 1.42( 10.60%)d10.98( 81.94%)
                                         0.0000  0.0122  0.2729  0.0117 -0.2580
                                         0.0070 -0.1667 -0.0138  0.1062  0.5537
                                         0.2948 -0.4250 -0.0110 -0.4951
  73. (0.00007) RY ( 9) C  3            s( 12.32%)p 0.63(  7.73%)d 6.49( 79.95%)
  74. (0.00307) RY ( 1) C  4            s(  0.35%)p99.99( 90.45%)d26.41(  9.20%)
                                         0.0000 -0.0014  0.0590 -0.0037 -0.3171
                                        -0.0113 -0.8911  0.0022  0.0988  0.1644
                                         0.0913  0.1584  0.0970 -0.1489
  75. (0.00272) RY ( 2) C  4            s(  5.04%)p17.40( 87.75%)d 1.43(  7.20%)
                                         0.0000  0.0028  0.2245  0.0114  0.5271
                                        -0.0034 -0.3159 -0.0043 -0.7069 -0.0130
                                        -0.0859 -0.0260 -0.0840  0.2383
  76. (0.00117) RY ( 3) C  4            s( 43.50%)p 1.21( 52.75%)d 0.09(  3.75%)
                                         0.0000  0.0159  0.6593  0.0009 -0.5824
                                         0.0052  0.2151  0.0103 -0.3767 -0.0949
                                         0.0297 -0.0429  0.0124 -0.1601
  77. (0.00010) RY ( 4) C  4            s( 45.77%)p 1.00( 45.84%)d 0.18(  8.39%)
  78. (0.00007) RY ( 5) C  4            s(  0.01%)p99.99(  5.17%)d99.99( 94.82%)
  79. (0.00002) RY ( 6) C  4            s(  4.11%)p 0.86(  3.56%)d22.45( 92.33%)
  80. (0.00001) RY ( 7) C  4            s(  0.81%)p12.51( 10.15%)d99.99( 89.04%)
  81. (0.00001) RY ( 8) C  4            s(  0.11%)p 6.47(  0.69%)d99.99( 99.20%)
  82. (0.00000) RY ( 9) C  4            s(  0.36%)p10.37(  3.72%)d99.99( 95.92%)
  83. (0.00492) RY ( 1) C  5            s(  5.87%)p14.40( 84.55%)d 1.63(  9.57%)
[...]
 16 H                 0.5       0.0      -0.0      -0.0       0.0       0.0
 17 H                 0.1      -0.1      -0.1      -0.0      -0.0       0.0

                     72        73        74        75        76        77   
                   0.00000   0.00000   0.00000   0.00000   0.00000   0.00000
                   0.00007   0.00307   0.00272   0.00117   0.00010   0.00007
                  --------  --------  --------  --------  --------  --------
  0 C                 0.2      -0.2      -0.2      -2.2      -0.0       0.1
  1 N                -8.1      -0.1      -0.8      -2.2       0.1       0.3
  2 C               142.8     -10.9     -21.5     -91.9      -3.0      -4.7
  3 C                -9.6     138.6     147.8     208.7     158.9     115.2
  4 C               -14.3      -0.2      -0.9      -0.7      -0.0      -0.1
  5 C               -11.1      -0.8       0.8      -1.4      -0.2      -0.2
  8 H                -0.0      -0.7      -0.2      -0.5       0.0      -0.1
 10 H                -0.4       0.0      -0.0       0.1      -0.1       0.0
 11 H                -0.0      -3.7      -7.9      -5.3     -20.3      -2.6
 12 H                -0.0     -12.1      -3.4      -2.5     -17.0      -1.7
 13 H                 0.3      -9.6     -12.7      -0.2     -18.3      -6.3
 14 H                 0.2      -0.0      -0.8      -0.7       0.0      -0.0
 15 H                 0.2       0.0      -0.0       0.0      -0.0      -0.0
 16 H                -0.1      -0.2      -0.1      -1.1       0.0      -0.0

                     78        79        80        81        82        83   
                   0.00000   0.00000   0.00000   0.00000   0.00000   0.00000
                   0.00002   0.00001   0.00001   0.00000   0.00492   0.00392
                  --------  --------  --------  --------  --------  --------
  0 C                 0.2       0.1      -0.0      -0.0      -0.2      -0.5
  1 N                -0.0      -0.1      -0.0      -0.1      -0.4      -0.7
  2 C                -2.2      -3.3       0.1      -0.6     -18.9     -19.0
  3 C               111.6     112.1     111.0     111.8      -1.1      -0.3
  4 C                -0.0      -0.0      -0.0      -0.2     164.1     161.3
  5 C                -0.0       0.1      -0.1       0.1     -25.4     -19.5
  6 O                -0.0      -0.1      -0.0       0.0       0.3      -0.7
 10 H                 0.0      -0.0      -0.0      -0.0       0.1      -0.0
 11 H                -4.2      -2.2      -2.2      -6.0       0.0      -0.1
 12 H                -1.0      -5.0      -6.4      -3.8      -0.0       0.1
 13 H                -4.4      -1.3      -2.4      -1.2      -0.0      -0.5
 14 H                -0.1      -0.0       0.0       0.0     -13.3      -9.4
 15 H                -0.0      -0.0      -0.0       0.0      -4.5     -11.2
 16 H                 0.0      -0.1       0.0      -0.0      -0.5       0.7

                     84        85        86        87        88        89   
                   0.00000   0.00000   0.00000   0.00000   0.00000   0.00000
                   0.00125   0.00055   0.00016   0.00009   0.00005   0.00003
                  --------  --------  --------  --------  --------  --------
  0 C                -0.5      -0.3       0.0      -0.0      -0.1      -0.0
  1 N                 1.1      -0.1       0.0       0.2      -0.5      -0.2
  2 C               -40.0     -15.3      -0.1      -3.3      -4.0      -1.1
  3 C                -0.8       0.0      -0.1      -0.6       0.6       0.4
  4 C               147.5     189.8     114.7     112.7     111.4     112.8
  5 C                -0.5     -32.4      -3.2      -2.5       0.5      -3.6
  6 O                -0.1       0.0      -0.2      -0.0       0.0      -0.1
 13 H                -0.1      -0.0      -0.0      -0.0      -0.2       0.0
 14 H                -2.3     -20.2      -3.3      -5.9      -2.5      -3.3
 15 H                -4.4     -21.6      -7.6      -0.3      -5.1      -4.6
 16 H                 0.0       0.1      -0.2      -0.1      -0.1      -0.1
 17 H                -0.0       0.0       0.0      -0.1      -0.0      -0.0

                     90        91        92        93        94        95   
                   0.00000   0.00000   0.00000   0.00000   0.00000   0.00000
                   0.00001   0.00756   0.00388   0.00317   0.00265   0.00106
                  --------  --------  --------  --------  --------  --------
  0 C                 0.0       0.0      -0.0      -0.0       0.6       0.1
  1 N                -0.1      -0.6      -1.2      -0.1       1.0      -0.7
  2 C                -1.2     -19.1      -3.3      -0.6     -54.2     -20.1
  3 C                 0.1      -0.7      -1.3      -0.5      -0.3       1.7
  4 C               109.4     -15.3     -12.2      -8.3     -22.9       0.7
  5 C                -5.3     153.2     152.9     118.6     197.3     123.4
  6 O                -0.1     -11.4      -8.6      -2.3     -10.0      -0.3
  9 H                -0.0      -0.0       0.0      -0.0      -0.6      -0.2
 13 H                -0.0      -0.8       0.1       0.0      -0.1      -0.4
 14 H                -1.0       0.3      -0.1      -0.2      -0.1      -0.1
 15 H                -1.8      -0.1       0.6       0.3       0.3      -0.1
 16 H                -0.1      -4.4     -25.1      -6.6      -7.2      -3.8
 17 H                 0.0      -1.0      -1.7      -0.1      -3.7      -0.0

                     96        97        98        99       100       101   
                   0.00000   0.00000   0.00000   0.00000   0.00000   0.00000
                   0.00047   0.00021   0.00009   0.00004   0.00186   0.00118
                  --------  --------  --------  --------  --------  --------
  1 N                 0.2      -0.0       0.2       0.0      -0.1      -0.0
  2 C                -7.7      -1.2      -8.3      -0.7      -0.3       0.3
  3 C                 0.0       0.2       0.1      -0.0       0.0      -0.0
  4 C                -4.9      -3.9      -6.8     -23.2       0.0       0.1
  5 C               121.2     116.0     121.6     130.6      -5.4      -7.8
  6 O                -5.2      -0.8      -2.3      -4.7     106.9     111.1
  9 H                -0.3       0.0       0.0       0.0      -0.1      -0.0
 14 H                 0.2       0.4       0.1      -0.2      -0.0       0.0
 15 H                -0.1      -0.1      -0.4       0.3      -0.1      -0.0
 16 H                -3.0     -10.7      -3.3      -2.0      -0.1      -0.1
 17 H                -0.5       0.1      -0.7      -0.2      -0.8      -3.5

                    102       103       104       105       106       107   
                   0.00000   0.00000   0.00000   0.00000   0.00000   0.00000
                   0.00017   0.00016   0.00004   0.00001   0.00001   0.00000
                  --------  --------  --------  --------  --------  --------
  1 N                -0.3      -0.3       0.0      -0.0      -0.1      -0.0
  2 C                 0.0       0.6       0.1      -0.1       0.1       0.0
  3 C                -0.1      -0.1      -0.0      -0.0       0.0      -0.0
  4 C                 0.0      -0.0       0.2      -0.1      -0.0      -0.0
  5 C                -9.9     -19.5      -2.0      -1.7      -0.1      -0.3
  6 O               114.9     124.6     105.7     103.4     107.0     102.8
 14 H                -0.0      -0.1       0.0      -0.0      -0.0      -0.0
 15 H                -0.0      -0.2      -0.0       0.0      -0.0      -0.0
 16 H                -0.2      -0.6      -0.1      -0.0      -0.0      -0.0
 17 H                -4.2      -4.2      -3.9      -1.5      -6.8      -2.4

                    108       109       110       111       112       113   
                   0.00000   0.00000   0.00000   0.00000   0.00000   0.00000
                   0.00000   0.00107   0.00018   0.00010   0.00002   0.00306
                  --------  --------  --------  --------  --------  --------
  0 C                 0.0     -38.2      -2.9      -4.0      -7.2     -34.2
  1 N                -0.0       0.6      -0.2      -0.1      -0.2      -0.3
  2 C                -0.1      -0.3      -0.0      -0.0      -0.0       0.5
  3 C                 0.0       0.0      -0.0      -0.0      -0.0      -1.4
  4 C                -0.1      -0.1      -0.0      -0.0      -0.0       0.0
  5 C                -1.6      -0.0      -0.0      -0.0      -0.0      -0.0
  6 O               102.3      -0.0      -0.0      -0.0      -0.0      -0.0
  7 H                -0.0     139.0     103.8     104.9     107.7      -0.2
  8 H                -0.0      -0.3      -0.4      -0.4      -0.1     139.0
  9 H                -0.0      -0.4      -0.3      -0.3      -0.1      -0.3
 10 H                -0.0      -0.4      -0.1      -0.1      -0.0      -0.2
 11 H                -0.0      -0.0      -0.0      -0.0      -0.0      -2.6
 12 H                -0.0      -0.0      -0.0      -0.0      -0.0      -0.2
 17 H                -0.3      -0.0      -0.0      -0.1      -0.0      -0.0

                    114       115       116       117       118       119   
                   0.00000   0.00000   0.00000   0.00000   0.00000   0.00000
                   0.00017   0.00012   0.00002   0.00280   0.00016   0.00009
                  --------  --------  --------  --------  --------  --------
  0 C                -2.7      -4.4      -6.7     -37.1      -3.0      -4.5
  1 N                -0.1       0.0      -0.2       0.5      -0.2      -0.0
  2 C                -0.1       0.0      -0.1      -0.5      -0.0      -0.0
  5 C                -0.0      -0.0      -0.0      -0.9      -0.0      -0.0
  6 O                -0.0      -0.0      -0.0      -0.2      -0.0      -0.0
  7 H                -0.4      -0.4      -0.1      -0.3      -0.4      -0.3
  8 H               103.9     105.1     107.3      -0.4      -0.3      -0.4
  9 H                -0.4      -0.4      -0.1     140.2     104.1     105.3
 11 H                -0.0       0.0      -0.0      -0.5      -0.0      -0.0
 17 H                -0.0      -0.0      -0.0      -0.6      -0.0      -0.0

                    120       121       122       123       124       125   
                   0.00000   0.00000   0.00000   0.00000   0.00000   0.00000
                   0.00002   0.00469   0.00068   0.00020   0.00004   0.00175
                  --------  --------  --------  --------  --------  --------
  0 C                -6.2      -3.0      -0.1      -0.3      -0.1      -1.5
  1 N                -0.3      -5.1      -3.6      -3.6      -5.8      -0.1
  2 C                -0.0      -3.9      -0.1      -0.3       0.1       0.0
  3 C                -0.1       0.1      -0.0      -0.1      -0.0     -35.0
  4 C                -0.0       0.1      -0.0      -0.0      -0.1       0.1
  5 C                 0.0      -0.2      -0.0      -0.0       0.0       0.0
  7 H                -0.1      -0.4      -0.0      -0.1      -0.0      -0.0
  8 H                -0.1      -0.1      -0.0      -0.0      -0.0      -2.5
  9 H               106.8      -0.1      -0.0      -0.0      -0.0      -0.5
 10 H                -0.0     113.7     104.1     104.6     106.0       0.0
 11 H                 0.0      -0.0      -0.0      -0.0      -0.0     140.1
 12 H                -0.0      -0.5      -0.0      -0.0      -0.0      -0.4
 13 H                -0.0      -0.0      -0.0      -0.0      -0.0      -0.2
 15 H                -0.0      -0.8      -0.0      -0.0      -0.0      -0.0

                    126       127       128       129       130       131   
                   0.00000   0.00000   0.00000   0.00000   0.00000   0.00000
                   0.00017   0.00012   0.00003   0.00325   0.00016   0.00013
                  --------  --------  --------  --------  --------  --------
  1 N                -0.0      -0.1      -0.1       0.0      -0.0      -0.1
  2 C                -0.2      -0.1      -0.1      -0.5      -0.2      -0.0
  3 C                -2.9      -3.3      -7.8     -32.9      -2.9      -3.3
  4 C                -0.0      -0.1      -0.0       0.1      -0.0      -0.0
  8 H                -0.0      -0.0      -0.1      -0.2      -0.0      -0.0
 10 H                -0.0      -0.0      -0.0      -0.5      -0.0      -0.0
 11 H               104.0     104.4     108.5      -0.3      -0.4      -0.5
 12 H                -0.4      -0.5      -0.1     134.7     104.0     104.4
 13 H                -0.4      -0.3      -0.1      -0.3      -0.4      -0.4

                    132       133       134       135       136       137   
                   0.00000   0.00000   0.00000   0.00000   0.00000   0.00000
                   0.00003   0.00151   0.00018   0.00014   0.00002   0.00211
                  --------  --------  --------  --------  --------  --------
  1 N                -0.1       0.1      -0.0      -0.2      -0.0       0.0
  2 C                -0.2       2.3      -0.1      -0.3      -0.1       1.5
  3 C                -7.8     -37.4      -2.9      -2.5      -8.2      -1.5
  4 C                -0.1      -0.9      -0.1      -0.0      -0.0     -40.7
  5 C                -0.0      -1.2      -0.1      -0.0      -0.0       0.0
 11 H                -0.1      -0.2      -0.4      -0.3      -0.1      -0.0
 12 H               108.3      -0.3      -0.3      -0.4      -0.1      -0.0
 13 H                -0.1     140.3     104.0     103.8     108.8      -1.3
 14 H                -0.0      -1.3      -0.0      -0.0      -0.1     143.2
 15 H                -0.0      -0.0      -0.0      -0.0      -0.0      -0.7
 16 H                -0.0      -1.3      -0.0      -0.0      -0.1      -0.4

                    138       139       140       141       142       143   
                   0.00000   0.00000   0.00000   0.00000   0.00000   0.00000
                   0.00021   0.00011   0.00002   0.00333   0.00018   0.00013
                  --------  --------  --------  --------  --------  --------
  1 N                -0.1      -0.0      -0.0      -0.7      -0.0      -0.1
  2 C                -0.4       0.0      -0.3       1.4      -0.2      -0.0
  3 C                -0.1      -0.0      -0.0       0.1      -0.0      -0.0
  4 C                -3.0      -5.2      -6.3     -41.7      -2.8      -4.5
  5 C                -0.0       0.0      -0.3       0.7      -0.2       0.0
  6 O                -0.2      -0.0      -0.0      -0.1      -0.1      -0.0
 10 H                -0.0      -0.0      -0.0      -0.8      -0.0      -0.0
 14 H               104.1     106.0     107.1      -0.7      -0.2      -0.7
 15 H                -0.2      -0.7      -0.0     142.8     103.6     105.5
 17 H                -0.0      -0.0      -0.0      -0.9      -0.0      -0.0

                    144       145       146       147       148       149   
                   0.00000   0.00000   0.00000   0.00000   0.00000   0.00000
                   0.00002   0.00188   0.00021   0.00009   0.00003   0.00502
                  --------  --------  --------  --------  --------  --------
  0 C                -0.0      -0.0      -0.0      -0.0      -0.0      -1.6
  1 N                -0.0      -0.0      -0.1      -0.0      -0.0      -2.6
  2 C                -0.3       0.8      -0.5       0.2      -0.6       2.6
  3 C                -0.0      -1.4      -0.0      -0.0      -0.0       0.1
  4 C                -7.0      -0.3      -0.1       0.2      -0.6      -0.3
  5 C                -0.3     -42.3      -2.7      -7.3      -5.1      -8.9
  6 O                -0.0      -0.2      -0.3      -0.8      -0.4      -4.4
  9 H                -0.0      -0.0      -0.0      -0.0      -0.0      -0.6
 13 H                -0.0      -1.4      -0.0      -0.0      -0.0      -0.0
 14 H                 0.0      -0.4      -0.0      -0.0       0.0      -0.0
 15 H               107.6       0.0      -0.0       0.0      -0.0      -0.9
 16 H                -0.0     145.2     103.8     107.9     106.6      -0.1
 17 H                -0.0      -0.1      -0.0      -0.1      -0.0     117.0

                    150       151       152   
                   0.00000   0.00000   0.00000
                   0.00143   0.00083   0.00003
                  --------  --------  --------
  1 N                -0.0      -0.4      -0.0
  4 C                -0.0       0.2      -0.0
  5 C                -0.1      -1.6      -0.1
  6 O                -3.2      -2.4      -5.5
 16 H                -0.0      -0.1      -0.0
 17 H               103.5     104.5     105.8

Storing NBOs: 5637.nbo
                                    *** NBOs were stored ***

                                *** returned from GENNBO program ***

-------
TIMINGS
-------

Total SCF time: 0 days 0 hours 0 min 6 sec 

Total time                  ....       6.459 sec
Sum of individual times     ....       7.017 sec  (108.6%)

Fock matrix formation       ....       4.170 sec  ( 64.6%)
  Coulomb formation         ....       2.148 sec  ( 51.5% of F)
  Split-RI-J                ....       2.140 sec  ( 51.3% of F)
  XC integration            ....       2.017 sec  ( 48.4% of F)
    Basis function eval.    ....       0.667 sec  ( 33.1% of XC)
    Density eval.           ....       0.369 sec  ( 18.3% of XC)
    XC-Functional eval.     ....       0.105 sec  (  5.2% of XC)
    XC-Potential eval.      ....       0.791 sec  ( 39.2% of XC)
Diagonalization             ....       0.031 sec  (  0.5%)
Density matrix formation    ....       0.003 sec  (  0.0%)
Population analysis         ....       1.581 sec  ( 24.5%)
Initial guess               ....       0.430 sec  (  6.7%)
Orbital Transformation      ....       0.000 sec  (  0.0%)
Orbital Orthonormalization  ....       0.000 sec  (  0.0%)
DIIS solution               ....       0.008 sec  (  0.1%)
SOSCF solution              ....       0.013 sec  (  0.2%)
Grid generation             ....       0.781 sec  ( 12.1%)
           ************************************************************
           *              Shut down parallel processing               *
           ************************************************************

-------------------------   --------------------
FINAL SINGLE POINT ENERGY      -326.428968119943
-------------------------   --------------------


                            ***************************************
                            *     ORCA property calculations      *
                            ***************************************

                                    ---------------------
                                    Active property flags
                                    ---------------------
   (+) Dipole Moment


------------------------------------------------------------------------------
                       ORCA ELECTRIC PROPERTIES CALCULATION
------------------------------------------------------------------------------

Dipole Moment Calculation                       ... on
Quadrupole Moment Calculation                   ... off
Polarizability Calculation                      ... off
GBWName                                         ... 5637.gbw
Electron density file                           ... 5637.scfp.tmp

-------------
DIPOLE MOMENT
-------------
                                X             Y             Z
Electronic contribution:     -2.17289      -2.21136      -3.85222
Nuclear contribution   :      2.68421       2.98527       4.31573
                        -----------------------------------------
Total Dipole Moment    :      0.51132       0.77391       0.46351
                        -----------------------------------------
Magnitude (a.u.)       :      1.03694
Magnitude (Debye)      :      2.63569


Timings for individual modules:

Sum of individual times         ...        7.574 sec (=   0.126 min)
GTO integral calculation        ...        0.473 sec (=   0.008 min)   6.2 %
SCF iterations                  ...        7.101 sec (=   0.118 min)  93.8 %
                             ****ORCA TERMINATED NORMALLY****
TOTAL RUN TIME: 0 days 0 hours 0 minutes 7 seconds 968 msec
