
                                 *****************
                                 * O   R   C   A *
                                 *****************

           --- An Ab Initio, DFT and Semiempirical electronic structure package ---

                  #######################################################
                  #                        -***-                        #
                  #  Department of molecular theory and spectroscopy    #
                  #              Directorship: Frank Neese              #
                  # Max Planck Institute for Chemical Energy Conversion #
                  #                  D-45470 Muelheim/Ruhr              #
                  #                       Germany                       #
                  #                                                     #
                  #                  All rights reserved                #
                  #                        -***-                        #
                  #######################################################


                         Program Version 3.0.3 - RELEASE   -


 With contributions from (in alphabetic order):
   Ute Becker             : Parallelization
   Dmytro Bykov           : SCF Hessian
   Dmitry Ganyushin       : Spin-Orbit,Spin-Spin,Magnetic field MRCI
   Andreas Hansen         : Spin unrestricted coupled pair/coupled cluster methods
   Dimitrios Liakos       : Extrapolation schemes; parallel MDCI
   Robert Izsak           : Overlap fitted RIJCOSX, COSX-SCS-MP3
   Christian Kollmar      : KDIIS, OOCD, Brueckner-CCSD(T), CCSD density
   Simone Kossmann        : Meta GGA functionals, TD-DFT gradient, OOMP2, MP2 Hessian
   Taras Petrenko         : DFT Hessian,TD-DFT gradient, ASA and ECA modules, normal mode analysis, Resonance Raman, ABS, FL, XAS/XES, NRVS
   Christoph Reimann      : Effective Core Potentials
   Michael Roemelt        : Restricted open shell CIS
   Christoph Riplinger    : Improved optimizer, TS searches, QM/MM, DLPNO-CCSD
   Barbara Sandhoefer     : DKH picture change effects
   Igor Schapiro          : Molecular dynamics
   Kantharuban Sivalingam : CASSCF convergence, NEVPT2
   Boris Wezisla          : Elementary symmetry handling
   Frank Wennmohs         : Technical directorship


 We gratefully acknowledge several colleagues who have allowed us to
 interface, adapt or use parts of their codes:
   Stefan Grimme, W. Hujo, H. Kruse, T. Risthaus : VdW corrections, initial TS optimization,
                                                   DFT functionals, gCP
   Ed Valeev                                     : LibInt (2-el integral package), F12 methods
   Garnet Chan, S. Sharma, R. Olivares           : DMRG
   Ulf Ekstrom                                   : XCFun DFT Library
   Mihaly Kallay                                 : mrcc  (arbitrary order and MRCC methods)
   Andreas Klamt, Michael Diedenhofen            : otool_cosmo (COSMO solvation model)
   Frank Weinhold                                : gennbo (NPA and NBO analysis)
   Christopher J. Cramer and Donald G. Truhlar   : smd solvation model


 Your calculation uses the libint2 library for the computation of 2-el integrals
 For citations please refer to: http://libint.valeyev.net

 This ORCA versions uses:
   CBLAS   interface :  Fast vector & matrix operations
   LAPACKE interface :  Fast linear algebra routines
   SCALAPACK package :  Parallel linear algebra routines


Your calculation utilizes the basis: Ahlrichs-VDZ
Cite in your paper:
H - Kr: A. Schaefer, H. Horn and R. Ahlrichs, J. Chem. Phys. 97, 2571 (1992).

Your calculation utilizes the basis: Ahlrichs SVPalls1+f
Cite in your paper:
Rb - Xe: A. Schaefer, C. Huber and R. Ahlrichs, J. Chem. Phys. 100, 5829 (1994).

================================================================================
                                        WARNINGS
                       Please study these warnings very carefully!
================================================================================
Now building the actual basis set


INFO   : the flag for use of LIBINT has been found!

================================================================================
                                       INPUT FILE
================================================================================
NAME = 5812.inp
|  1> ! RI PBE def2-SVP def2-SVP/J NBO PAL2
|  2> % maxcore 2000
|  3> % output
|  4>     # printlevel mini
|  5>     print[ P_Basis ] 0
|  6>     print[ P_SCFInfo ] 1
|  7>     print[ P_SCFIterInfo ] 1
|  8>     print[ P_OrbEn ] 0
|  9>     print[ P_Cartesian ] 0
| 10> end
| 11> *xyz 0 1
| 12>  C        1.5203850000     1.3269820000    -0.0240950000 
| 13>  N        2.9157610000     1.0067510000     0.1467830000 
| 14>  C        3.3346070000    -0.2744010000     0.2646860000 
| 15>  O        2.5566760000    -1.2101390000     0.2318650000 
| 16>  C        4.8280100000    -0.4480030000     0.4379040000 
| 17>  C        5.2237120000    -1.8995190000     0.5623680000 
| 18>  O        6.6301400000    -1.9363730000     0.7182870000 
| 19>  H        1.4106140000     2.4084350000    -0.0967700000 
| 20>  H        0.9292640000     0.9651960000     0.8202220000 
| 21>  H        1.1211520000     0.8670060000    -0.9308590000 
| 22>  H        3.5923700000     1.7475420000     0.1793120000 
| 23>  H        5.1608360000     0.0973410000     1.3273680000 
| 24>  H        5.3513780000    -0.0000070000    -0.4134050000 
| 25>  H        4.9038030000    -2.4471770000    -0.3312210000 
| 26>  H        4.7120180000    -2.3492550000     1.4206410000 
| 27>  H        6.9004840000    -2.8526810000     0.8041130000 
| 28> *
| 29> 
| 30>                          ****END OF INPUT****
================================================================================

                       ****************************
                       * Single Point Calculation *
                       ****************************

--------------------------------
INTERNAL COORDINATES (ANGSTROEM)
--------------------------------
 C      0   0   0   0.000000     0.000     0.000
 N      1   0   0   1.441812     0.000     0.000
 C      2   1   0   1.353028   121.347     0.000
 O      3   2   1   1.217317   121.849     0.000
 C      3   2   1   1.513405   115.091   179.993
 C      5   3   2   1.509626   112.234   180.020
 O      6   5   3   1.415524   107.131   179.994
 H      1   2   3   1.089437   109.020   179.992
 H      1   2   3   1.092330   111.012    59.888
 H      1   2   3   1.092330   111.013   300.097
 H      2   1   3   1.003807   119.490   180.003
 H      5   3   2   1.095134   109.617    58.239
 H      5   3   2   1.095145   109.614   301.797
 H      6   5   3   1.095798   109.681    58.798
 H      6   5   3   1.095776   109.682   301.201
 H      7   6   5   0.959204   108.346   179.687

---------------------------
INTERNAL COORDINATES (A.U.)
---------------------------
 C      0   0   0   0.000000     0.000     0.000
 N      1   0   0   2.724630     0.000     0.000
 C      2   1   0   2.556852   121.347     0.000
 O      3   2   1   2.300395   121.849     0.000
 C      3   2   1   2.859921   115.091   179.993
 C      5   3   2   2.852779   112.234   180.020
 O      6   5   3   2.674953   107.131   179.994
 H      1   2   3   2.058737   109.020   179.992
 H      1   2   3   2.064204   111.012    59.888
 H      1   2   3   2.064205   111.013   300.097
 H      2   1   3   1.896921   119.490   180.003
 H      5   3   2   2.069504   109.617    58.239
 H      5   3   2   2.069523   109.614   301.797
 H      6   5   3   2.070757   109.681    58.798
 H      6   5   3   2.070717   109.682   301.201
 H      7   6   5   1.812633   108.346   179.687



           ************************************************************
           *        Program running with 2 parallel MPI-processes     *
           *              working on a common directory               *
           ************************************************************
------------------------------------------------------------------------------
                           ORCA GTO INTEGRAL CALCULATION
                           -- RI-GTO INTEGRALS CHOSEN --
------------------------------------------------------------------------------

                         BASIS SET STATISTICS AND STARTUP INFO

Gaussian basis set:
 # of primitive gaussian shells          ...  129
 # of primitive gaussian functions       ...  231
 # of contracted shells                  ...   69
 # of contracted basis functions         ...  143
 Highest angular momentum                ...    2
 Maximum contraction depth               ...    5
Auxiliary gaussian basis set:
 # of primitive gaussian shells          ...  240
 # of primitive gaussian functions       ...  634
 # of contracted shells                  ...  150
 # of contracted aux-basis functions     ...  442
 Highest angular momentum                ...    4
 Maximum contraction depth               ...    7
Ratio of auxiliary to basis functions    ...  3.09
Integral package used                  ... LIBINT
 One Electron integrals                  ... done
 Ordering auxiliary basis shells         ... done
 Integral threshhold             Thresh  ...  1.000e-10
 Primitive cut-off               TCut    ...  1.000e-11
 Pre-screening matrix                    ... done
 Shell pair data                         ... 
 Ordering of the shell pairs             ... done (   0.000 sec) 2226 of 2415 pairs
 Determination of significant pairs      ... done (   0.000 sec)
 Creation of shell pair data             ... done (   0.000 sec)
 Storage of shell pair data              ... done (   0.000 sec)
 Shell pair data done in (   0.001 sec)
 Computing two index integrals           ... done
 Cholesky decomposition of the V-matrix  ... done


Timings:
 Total evaluation time                   ...   0.161 sec (  0.003 min)
 One electron matrix time                ...   0.018 sec (  0.000 min) = 11.5%
 Schwartz matrix evaluation time         ...   0.076 sec (  0.001 min) = 47.1%
 Two index repulsion integral time       ...   0.004 sec (  0.000 min) =  2.4%
 Cholesky decomposition of V             ...   0.003 sec (  0.000 min) =  2.1%
 Three index repulsion integral time     ...   0.000 sec (  0.000 min) =  0.0%

           ************************************************************
           *              Shut down parallel processing               *
           ************************************************************


           ************************************************************
           *        Program running with 2 parallel MPI-processes     *
           *              working on a common directory               *
           ************************************************************
-------------------------------------------------------------------------------
                                 ORCA SCF
-------------------------------------------------------------------------------

------------
SCF SETTINGS
------------
Hamiltonian:
 Density Functional     Method          .... DFT(GTOs)
 Exchange Functional    Exchange        .... PBE
   PBE kappa parameter  XKappa          ....  0.804000
 Correlation Functional Correlation     .... PBE
 LDA part of GGA corr.  LDAOpt          .... PW91-LDA
 Gradients option       PostSCFGGA      .... off
   NL short-range parameter             ....  6.400000
 RI-approximation to the Coulomb term is turned on
   Number of auxiliary basis functions  .... 442


General Settings:
 Integral files         IntName         .... 5812
 Hartree-Fock type      HFTyp           .... RHF
 Total Charge           Charge          ....    0
 Multiplicity           Mult            ....    1
 Number of Electrons    NEL             ....   56
 Basis Dimension        Dim             ....  143
 Nuclear Repulsion      ENuc            ....    311.0171712532 Eh

Convergence Acceleration:
 DIIS                   CNVDIIS         .... on
   Start iteration      DIISMaxIt       ....    12
   Startup error        DIISStart       ....  0.200000
   # of expansion vecs  DIISMaxEq       ....     5
   Bias factor          DIISBfac        ....   1.050
   Max. coefficient     DIISMaxC        ....  10.000
 Newton-Raphson         CNVNR           .... off
 SOSCF                  CNVSOSCF        .... on
   Start iteration      SOSCFMaxIt      ....   150
   Startup grad/error   SOSCFStart      ....  0.003300
 Level Shifting         CNVShift        .... on
   Level shift para.    LevelShift      ....    0.2500
   Turn off err/grad.   ShiftErr        ....    0.0010
 Zerner damping         CNVZerner       .... off
 Static damping         CNVDamp         .... on
   Fraction old density DampFac         ....    0.7000
   Max. Damping (<1)    DampMax         ....    0.9800
   Min. Damping (>=0)   DampMin         ....    0.0000
   Turn off err/grad.   DampErr         ....    0.1000
 Fernandez-Rico         CNVRico         .... off

SCF Procedure:
 Maximum # iterations   MaxIter         ....   125
 SCF integral mode      SCFMode         .... Direct
   Integral package                     .... LIBINT
 Reset frequeny         DirectResetFreq ....    20
 Integral Threshold     Thresh          ....  1.000e-10 Eh
 Primitive CutOff       TCut            ....  1.000e-11 Eh

Convergence Tolerance:
 Convergence Check Mode ConvCheckMode   .... Total+1el-Energy
 Energy Change          TolE            ....  1.000e-06 Eh
 1-El. energy change                    ....  1.000e-03 Eh
 Orbital Gradient       TolG            ....  5.000e-05
 Orbital Rotation angle TolX            ....  5.000e-05
 DIIS Error             TolErr          ....  1.000e-06


Diagonalization of the overlap matrix:
Smallest eigenvalue                        ... 1.351e-03
Time for diagonalization                   ...    0.013 sec
Threshold for overlap eigenvalues          ... 1.000e-08
Number of eigenvalues below threshold      ... 0
Time for construction of square roots      ...    0.003 sec
Total time needed                          ...    0.016 sec

-------------------
DFT GRID GENERATION
-------------------

General Integration Accuracy     IntAcc      ...  4.340
Radial Grid Type                 RadialGrid  ... Gauss-Chebyshev
Angular Grid (max. acc.)         AngularGrid ... Lebedev-110
Angular grid pruning method      GridPruning ... 3 (G Style)
Weight generation scheme         WeightScheme... Becke
Basis function cutoff            BFCut       ...    1.0000e-10
Integration weight cutoff        WCut        ...    1.0000e-14
Grids for H and He will be reduced by one unit

# of grid points (after initial pruning)     ...  18904 (   0.0 sec)
# of grid points (after weights+screening)   ...  17663 (   0.1 sec)
nearest neighbour list constructed           ...    0.0 sec
Grid point re-assignment to atoms done       ...    0.0 sec
Grid point division into batches done        ...    0.0 sec
Reduced shell lists constructed in    0.1 sec

Total number of grid points                  ...    17663
Total number of batches                      ...      286
Average number of points per batch           ...       61
Average number of grid points per atom       ...     1104
Average number of shells per batch           ...    49.74 (72.09%)
Average number of basis functions per batch  ...   100.99 (70.62%)
Average number of large shells per batch     ...    39.15 (78.71%)
Average number of large basis fcns per batch ...    78.44 (77.67%)
Maximum spatial batch extension              ...  19.49, 20.93, 25.27 au
Average spatial batch extension              ...   1.40,  1.43,  1.49 au

Time for grid setup =    0.140 sec

------------------------------
INITIAL GUESS: MODEL POTENTIAL
------------------------------
Loading Hartree-Fock densities                     ... done
Calculating cut-offs                               ... done
Setting up the integral package                    ... done
Initializing the effective Hamiltonian             ... done
Starting the Coulomb interaction                   ... done (   0.0 sec)
Reading the grid                                   ... done
Mapping shells                                     ... done
Starting the XC term evaluation                    ... done (   0.1 sec)
  promolecular density results
     # of electrons  =     56.006929821
     EX              =    -45.982114754
     EC              =     -1.856006627
     EX+EC           =    -47.838121380
Transforming the Hamiltonian                       ... done (   0.0 sec)
Diagonalizing the Hamiltonian                      ... done (   0.0 sec)
Back transforming the eigenvectors                 ... done (   0.0 sec)
Now organizing SCF variables                       ... done
                      ------------------
                      INITIAL GUESS DONE (   0.4 sec)
                      ------------------
--------------
SCF ITERATIONS
--------------
ITER       Energy         Delta-E        Max-DP      RMS-DP      [F,P]     Damp
               ***  Starting incremental Fock matrix formation  ***
  0   -362.1183498790   0.000000000000 0.23740227  0.00419861  0.2557898 0.7000
  1   -362.2334203190  -0.115070439949 0.14844587  0.00258854  0.0880489 0.7000
                               ***Turning on DIIS***
  2   -362.2681085415  -0.034688222512 0.10580132  0.00299386  0.0266107 0.0000
  3   -362.3324171200  -0.064308578501 0.11362081  0.00185938  0.0510015 0.0000
  4   -362.3444678282  -0.012050708268 0.01462323  0.00047930  0.0254148 0.0000
                      *** Initiating the SOSCF procedure ***
                           *** Shutting down DIIS ***
                      *** Re-Reading the Fockian *** 
                      *** Removing any level shift *** 
ITER      Energy       Delta-E        Grad      Rot      Max-DP    RMS-DP
  5   -362.34616735  -0.0016995205  0.000676  0.000676  0.003243  0.000138
               *** Restarting incremental Fock matrix formation ***
  6   -362.34621489  -0.0000475453  0.000633  0.002930  0.004405  0.000128
  7   -362.34617847   0.0000364222  0.002130  0.002499  0.003533  0.000084
  8   -362.34622325  -0.0000447740  0.000109  0.000293  0.000973  0.000021
  9   -362.34622299   0.0000002598  0.000140  0.000170  0.000401  0.000009
 10   -362.34622356  -0.0000005720  0.000019  0.000057  0.000092  0.000004
                 **** Energy Check signals convergence ****
              ***Rediagonalizing the Fockian in SOSCF/NRSCF***

               *****************************************************
               *                     SUCCESS                       *
               *           SCF CONVERGED AFTER  11 CYCLES          *
               *****************************************************

Setting up the final grid:

General Integration Accuracy     IntAcc      ...  4.670
Radial Grid Type                 RadialGrid  ... Gauss-Chebyshev
Angular Grid (max. acc.)         AngularGrid ... Lebedev-302
Angular grid pruning method      GridPruning ... 3 (G Style)
Weight generation scheme         WeightScheme... Becke
Basis function cutoff            BFCut       ...    1.0000e-10
Integration weight cutoff        WCut        ...    1.0000e-14
Grids for H and He will be reduced by one unit

# of grid points (after initial pruning)     ...  74030 (   0.0 sec)
# of grid points (after weights+screening)   ...  68225 (   0.1 sec)
nearest neighbour list constructed           ...    0.0 sec
Grid point re-assignment to atoms done       ...    0.0 sec
Grid point division into batches done        ...    0.2 sec
Reduced shell lists constructed in    0.4 sec

Total number of grid points                  ...    68225
Total number of batches                      ...     1076
Average number of points per batch           ...       63
Average number of grid points per atom       ...     4264
Average number of shells per batch           ...    46.47 (67.35%)
Average number of basis functions per batch  ...    93.86 (65.63%)
Average number of large shells per batch     ...    35.89 (77.22%)
Average number of large basis fcns per batch ...    71.40 (76.08%)
Maximum spatial batch extension              ...  16.75, 17.76, 18.83 au
Average spatial batch extension              ...   0.97,  0.97,  1.01 au

Final grid set up in    0.5 sec
Final integration                            ... done (   0.4 sec)
Change in XC energy                          ...     0.000089954
Integrated number of electrons               ...    55.999985285
Previous integrated no of electrons          ...    56.002931294

----------------
TOTAL SCF ENERGY
----------------

Total Energy       :         -362.34613359 Eh           -9859.93956 eV

Components:
Nuclear Repulsion  :          311.01717125 Eh            8463.20749 eV
Electronic Energy  :         -673.36330484 Eh          -18323.14706 eV

One Electron Energy:        -1109.93490418 Eh          -30202.86423 eV
Two Electron Energy:          436.57159934 Eh           11879.71717 eV

Virial components:
Potential Energy   :         -721.63338293 Eh          -19636.64266 eV
Kinetic Energy     :          359.28724934 Eh            9776.70309 eV
Virial Ratio       :            2.00851376


DFT components:
N(Alpha)           :       27.999992642725 electrons
N(Beta)            :       27.999992642725 electrons
N(Total)           :       55.999985285451 electrons
E(X)               :      -46.877250056700 Eh       
E(C)               :       -1.875975447180 Eh       
E(XC)              :      -48.753225503880 Eh       

---------------
SCF CONVERGENCE
---------------

  Last Energy change         ...    1.4984e-08  Tolerance :   1.0000e-06
  Last MAX-Density change    ...    6.7508e-05  Tolerance :   1.0000e-05
  Last RMS-Density change    ...    2.1733e-06  Tolerance :   1.0000e-06
  Last Orbital Gradient      ...    2.4698e-05  Tolerance :   5.0000e-05
  Last Orbital Rotation      ...    2.2667e-05  Tolerance :   5.0000e-05

             **** THE GBW FILE WAS UPDATED (5812.gbw) ****
             **** DENSITY FILE WAS UPDATED (5812.scfp.tmp) ****
             **** ENERGY FILE WAS UPDATED (5812.en.tmp) ****

                    ********************************
                    * MULLIKEN POPULATION ANALYSIS *
                    ********************************

-----------------------
MULLIKEN ATOMIC CHARGES
-----------------------
   0 C :    0.084146
   1 N :   -0.139267
   2 C :    0.007545
   3 O :   -0.231179
   4 C :   -0.040154
   5 C :    0.152436
   6 O :   -0.278791
   7 H :    0.020462
   8 H :    0.042265
   9 H :    0.038221
  10 H :    0.109407
  11 H :    0.032906
  12 H :    0.032791
  13 H :    0.007874
  14 H :    0.007684
  15 H :    0.153654
Sum of atomic charges:   -0.0000000

--------------------------------
MULLIKEN REDUCED ORBITAL CHARGES
--------------------------------
  0 C s       :     2.975542  s :     2.975542
      pz      :     1.055525  p :     2.902145
      px      :     0.844666
      py      :     1.001954
      dz2     :     0.006269  d :     0.038167
      dxz     :     0.012408
      dyz     :     0.002726
      dx2y2   :     0.011428
      dxy     :     0.005335
  1 N s       :     3.333821  s :     3.333821
      pz      :     1.648462  p :     3.785390
      px      :     1.067931
      py      :     1.068997
      dz2     :     0.002134  d :     0.020056
      dxz     :     0.002900
      dyz     :     0.002295
      dx2y2   :     0.005022
      dxy     :     0.007705
  2 C s       :     3.076486  s :     3.076486
      pz      :     0.879083  p :     2.800993
      px      :     1.017005
      py      :     0.904906
      dz2     :     0.006008  d :     0.114976
      dxz     :     0.010792
      dyz     :     0.024918
      dx2y2   :     0.047505
      dxy     :     0.025752
  3 O s       :     3.749121  s :     3.749121
      pz      :     1.415623  p :     4.464912
      px      :     1.565254
      py      :     1.484035
      dz2     :     0.001929  d :     0.017146
      dxz     :     0.002175
      dyz     :     0.003235
      dx2y2   :     0.003923
      dxy     :     0.005884
  4 C s       :     2.980537  s :     2.980537
      pz      :     1.024272  p :     3.030305
      px      :     0.980501
      py      :     1.025532
      dz2     :     0.004292  d :     0.029311
      dxz     :     0.004663
      dyz     :     0.008353
      dx2y2   :     0.007586
      dxy     :     0.004417
  5 C s       :     2.988347  s :     2.988347
      pz      :     1.031194  p :     2.797987
      px      :     0.729588
      py      :     1.037205
      dz2     :     0.007900  d :     0.061230
      dxz     :     0.016171
      dyz     :     0.008227
      dx2y2   :     0.017098
      dxy     :     0.011835
  6 O s       :     3.719363  s :     3.719363
      pz      :     1.887960  p :     4.546920
      px      :     1.314836
      py      :     1.344124
      dz2     :     0.001973  d :     0.012507
      dxz     :     0.001840
      dyz     :     0.000733
      dx2y2   :     0.005760
      dxy     :     0.002201
  7 H s       :     0.956416  s :     0.956416
      pz      :     0.005938  p :     0.023122
      px      :     0.003463
      py      :     0.013721
  8 H s       :     0.934913  s :     0.934913
      pz      :     0.010578  p :     0.022823
      px      :     0.005688
      py      :     0.006557
  9 H s       :     0.938987  s :     0.938987
      pz      :     0.011432  p :     0.022792
      px      :     0.004212
      py      :     0.007148
 10 H s       :     0.845739  s :     0.845739
      pz      :     0.013663  p :     0.044853
      px      :     0.014377
      py      :     0.016813
 11 H s       :     0.943730  s :     0.943730
      pz      :     0.011053  p :     0.023364
      px      :     0.005859
      py      :     0.006453
 12 H s       :     0.943883  s :     0.943883
      pz      :     0.010510  p :     0.023326
      px      :     0.007047
      py      :     0.005769
 13 H s       :     0.970630  s :     0.970630
      pz      :     0.010967  p :     0.021497
      px      :     0.003977
      py      :     0.006553
 14 H s       :     0.970873  s :     0.970873
      pz      :     0.010355  p :     0.021442
      px      :     0.005232
      py      :     0.005856
 15 H s       :     0.776395  s :     0.776395
      pz      :     0.020730  p :     0.069951
      px      :     0.016646
      py      :     0.032575


                     *******************************
                     * LOEWDIN POPULATION ANALYSIS *
                     *******************************

----------------------
LOEWDIN ATOMIC CHARGES
----------------------
   0 C :    0.010931
   1 N :   -0.007310
   2 C :    0.027766
   3 O :   -0.197247
   4 C :   -0.083914
   5 C :    0.063137
   6 O :   -0.132330
   7 H :    0.026440
   8 H :    0.029295
   9 H :    0.028630
  10 H :    0.071839
  11 H :    0.037449
  12 H :    0.037391
  13 H :    0.008912
  14 H :    0.008604
  15 H :    0.070406

-------------------------------
LOEWDIN REDUCED ORBITAL CHARGES
-------------------------------
  0 C s       :     2.827229  s :     2.827229
      pz      :     1.090619  p :     3.064811
      px      :     0.907062
      py      :     1.067129
      dz2     :     0.016140  d :     0.097029
      dxz     :     0.032314
      dyz     :     0.007268
      dx2y2   :     0.029823
      dxy     :     0.011485
  1 N s       :     3.050974  s :     3.050974
      pz      :     1.582418  p :     3.901853
      px      :     1.152399
      py      :     1.167036
      dz2     :     0.004669  d :     0.054484
      dxz     :     0.004967
      dyz     :     0.004907
      dx2y2   :     0.016680
      dxy     :     0.023260
  2 C s       :     2.837040  s :     2.837040
      pz      :     0.861808  p :     2.868349
      px      :     1.028179
      py      :     0.978362
      dz2     :     0.014665  d :     0.266845
      dxz     :     0.018475
      dyz     :     0.051597
      dx2y2   :     0.117023
      dxy     :     0.065084
  3 O s       :     3.548861  s :     3.548861
      pz      :     1.418830  p :     4.617913
      px      :     1.629529
      py      :     1.569554
      dz2     :     0.004221  d :     0.030473
      dxz     :     0.002811
      dyz     :     0.004256
      dx2y2   :     0.006542
      dxy     :     0.012643
  4 C s       :     2.850848  s :     2.850848
      pz      :     1.068704  p :     3.151238
      px      :     1.036867
      py      :     1.045668
      dz2     :     0.013280  d :     0.081827
      dxz     :     0.012646
      dyz     :     0.019428
      dx2y2   :     0.024275
      dxy     :     0.012199
  5 C s       :     2.838773  s :     2.838773
      pz      :     1.079969  p :     2.955701
      px      :     0.827347
      py      :     1.048385
      dz2     :     0.019284  d :     0.142389
      dxz     :     0.037950
      dyz     :     0.019819
      dx2y2   :     0.041030
      dxy     :     0.024305
  6 O s       :     3.446319  s :     3.446319
      pz      :     1.857172  p :     4.661723
      px      :     1.361920
      py      :     1.442631
      dz2     :     0.003950  d :     0.024288
      dxz     :     0.002870
      dyz     :     0.000437
      dx2y2   :     0.012742
      dxy     :     0.004290
  7 H s       :     0.907794  s :     0.907794
      pz      :     0.014219  p :     0.065766
      px      :     0.011030
      py      :     0.040517
  8 H s       :     0.904179  s :     0.904179
      pz      :     0.031001  p :     0.066526
      px      :     0.019145
      py      :     0.016379
  9 H s       :     0.904910  s :     0.904910
      pz      :     0.033777  p :     0.066460
      px      :     0.014230
      py      :     0.018452
 10 H s       :     0.800433  s :     0.800433
      pz      :     0.042081  p :     0.127728
      px      :     0.040114
      py      :     0.045533
 11 H s       :     0.892242  s :     0.892242
      pz      :     0.031615  p :     0.070310
      px      :     0.018018
      py      :     0.020676
 12 H s       :     0.892316  s :     0.892316
      pz      :     0.029819  p :     0.070293
      px      :     0.021977
      py      :     0.018497
 13 H s       :     0.923904  s :     0.923904
      pz      :     0.033292  p :     0.067184
      px      :     0.013749
      py      :     0.020143
 14 H s       :     0.924264  s :     0.924264
      pz      :     0.030586  p :     0.067132
      px      :     0.018726
      py      :     0.017820
 15 H s       :     0.746789  s :     0.746789
      pz      :     0.054006  p :     0.182806
      px      :     0.038284
      py      :     0.090516


                      *****************************
                      * MAYER POPULATION ANALYSIS *
                      *****************************

  NA   - Mulliken gross atomic population
  ZA   - Total nuclear charge
  QA   - Mulliken gross atomic charge
  VA   - Mayer's total valence
  BVA  - Mayer's bonded valence
  FA   - Mayer's free valence

  ATOM       NA         ZA         QA         VA         BVA        FA
  0 C      5.9159     6.0000     0.0841     3.9779     3.9779     0.0000
  1 N      7.1393     7.0000    -0.1393     3.2835     3.2835    -0.0000
  2 C      5.9925     6.0000     0.0075     4.3612     4.3612     0.0000
  3 O      8.2312     8.0000    -0.2312     2.2923     2.2923     0.0000
  4 C      6.0402     6.0000    -0.0402     3.8341     3.8341    -0.0000
  5 C      5.8476     6.0000     0.1524     4.1529     4.1529    -0.0000
  6 O      8.2788     8.0000    -0.2788     2.1226     2.1226    -0.0000
  7 H      0.9795     1.0000     0.0205     0.9885     0.9885     0.0000
  8 H      0.9577     1.0000     0.0423     0.9953     0.9953     0.0000
  9 H      0.9618     1.0000     0.0382     0.9953     0.9953    -0.0000
 10 H      0.8906     1.0000     0.1094     1.0028     1.0028    -0.0000
 11 H      0.9671     1.0000     0.0329     1.0010     1.0010    -0.0000
 12 H      0.9672     1.0000     0.0328     1.0002     1.0002     0.0000
 13 H      0.9921     1.0000     0.0079     0.9830     0.9830    -0.0000
 14 H      0.9923     1.0000     0.0077     0.9826     0.9826     0.0000
 15 H      0.8463     1.0000     0.1537     1.0184     1.0184     0.0000

  Mayer bond orders larger than 0.1
B(  0-C ,  1-N ) :   1.0099 B(  0-C ,  7-H ) :   0.9696 B(  0-C ,  8-H ) :   0.9674 
B(  0-C ,  9-H ) :   0.9664 B(  1-N ,  2-C ) :   1.2530 B(  1-N , 10-H ) :   0.9318 
B(  2-C ,  3-O ) :   2.0456 B(  2-C ,  4-C ) :   0.9436 B(  4-C ,  5-C ) :   1.0990 
B(  4-C , 11-H ) :   0.9144 B(  4-C , 12-H ) :   0.9141 B(  5-C ,  6-O ) :   1.1004 
B(  5-C , 13-H ) :   0.9358 B(  5-C , 14-H ) :   0.9376 B(  6-O , 15-H ) :   0.9790 



 *********************************** NBO 6.0 ***********************************
             N A T U R A L   A T O M I C   O R B I T A L   A N D
          N A T U R A L   B O N D   O R B I T A L   A N A L Y S I S
 ***************************** Kiya KiyaLu (100703) ****************************
  (c) Copyright 1996-2015 Board of Regents of the University of Wisconsin System
      on behalf of the Theoretical Chemistry Institute.  All rights reserved.

          Cite this program as:

          NBO 6.0.  E. D. Glendening, J. K. Badenhoop, A. E. Reed,
          J. E. Carpenter, J. A. Bohmann, C. M. Morales, C. R. Landis,
          and F. Weinhold (Theoretical Chemistry Institute, University
          of Wisconsin, Madison, WI, 2013); http://nbo6.chem.wisc.edu/

       /NPA    / : Natural Population Analysis
       /NBO    / : Natural Bond Orbital Analysis
       /AONBO  / : Write the AO to NBO transformation to lfn77
       /FILE   / : Set to 5812

 Filename set to 5812

 Job title:  *** NBO job generated by orca_scf

 Warning: MOs are non-orthogonal; program will continue

 Warning: -2003.10720 electrons reside outside the linearly independent MO space


 NATURAL POPULATIONS:  Natural atomic orbital occupancies

  NAO Atom No lang   Type(AO)    Occupancy      Energy
 -------------------------------------------------------
   1    C  1  s      Cor( 1s)     1.99928      -9.81877
   2    C  1  s      Val( 2s)     1.07327      -0.22026
   3    C  1  s      Ryd( 3s)     0.00093       0.77173
   4    C  1  px     Val( 2p)     0.90376      -0.06780
   5    C  1  px     Ryd( 3p)     0.00192       0.41906
   6    C  1  py     Val( 2p)     1.21051      -0.07944
   7    C  1  py     Ryd( 3p)     0.00412       0.61327
   8    C  1  pz     Val( 2p)     1.23439      -0.07903
   9    C  1  pz     Ryd( 3p)     0.00124       0.51188
  10    C  1  dxy    Ryd( 3d)     0.00041       2.11227
  11    C  1  dxz    Ryd( 3d)     0.00110       2.18275
  12    C  1  dyz    Ryd( 3d)     0.00029       2.14381
  13    C  1  dx2y2  Ryd( 3d)     0.00109       2.32281
  14    C  1  dz2    Ryd( 3d)     0.00067       2.22427

  15    N  2  s      Cor( 1s)     1.99914     -13.86856
  16    N  2  s      Val( 2s)     1.24568      -0.46659
  17    N  2  s      Ryd( 3s)     0.00164       1.05629
  18    N  2  px     Val( 2p)     1.33113      -0.21869
  19    N  2  px     Ryd( 3p)     0.00163       1.21009
  20    N  2  py     Val( 2p)     1.36543      -0.22281
  21    N  2  py     Ryd( 3p)     0.00146       1.00679
  22    N  2  pz     Val( 2p)     1.68789      -0.21364
  23    N  2  pz     Ryd( 3p)     0.00300       0.81598
  24    N  2  dxy    Ryd( 3d)     0.00091       2.76790
  25    N  2  dxz    Ryd( 3d)     0.00035       2.21897
  26    N  2  dyz    Ryd( 3d)     0.00026       2.24537
  27    N  2  dx2y2  Ryd( 3d)     0.00059       2.68237
  28    N  2  dz2    Ryd( 3d)     0.00066       2.51146

  29    C  3  s      Cor( 1s)     1.99920      -9.86027
  30    C  3  s      Val( 2s)     0.74009      -0.09291
  31    C  3  s      Ryd( 3s)     0.00341       0.49767
  32    C  3  px     Val( 2p)     0.92402      -0.02222
  33    C  3  px     Ryd( 3p)     0.01460       0.73487
  34    C  3  py     Val( 2p)     0.78139       0.02264
  35    C  3  py     Ryd( 3p)     0.01526       0.60488
  36    C  3  pz     Val( 2p)     0.84119      -0.11625
  37    C  3  pz     Ryd( 3p)     0.00220       0.52333
  38    C  3  dxy    Ryd( 3d)     0.00188       2.37375
  39    C  3  dxz    Ryd( 3d)     0.00132       1.88924
  40    C  3  dyz    Ryd( 3d)     0.00287       1.92131
  41    C  3  dx2y2  Ryd( 3d)     0.00436       2.38996
  42    C  3  dz2    Ryd( 3d)     0.00070       2.07653

  43    O  4  s      Cor( 1s)     1.99973     -18.46654
  44    O  4  s      Val( 2s)     1.68771      -0.76404
  45    O  4  s      Ryd( 3s)     0.00068       1.51076
  46    O  4  px     Val( 2p)     1.74589      -0.21003
  47    O  4  px     Ryd( 3p)     0.00139       1.15449
  48    O  4  py     Val( 2p)     1.69908      -0.22339
  49    O  4  py     Ryd( 3p)     0.00122       1.09978
  50    O  4  pz     Val( 2p)     1.46609      -0.19720
  51    O  4  pz     Ryd( 3p)     0.00077       1.04889
  52    O  4  dxy    Ryd( 3d)     0.00219       3.10223
  53    O  4  dxz    Ryd( 3d)     0.00090       2.64970
  54    O  4  dyz    Ryd( 3d)     0.00130       2.68141
  55    O  4  dx2y2  Ryd( 3d)     0.00207       2.85057
  56    O  4  dz2    Ryd( 3d)     0.00072       2.77604

  57    C  5  s      Cor( 1s)     1.99905      -9.77569
  58    C  5  s      Val( 2s)     1.04550      -0.20815
  59    C  5  s      Ryd( 3s)     0.00180       0.87485
  60    C  5  px     Val( 2p)     1.12599      -0.08264
  61    C  5  px     Ryd( 3p)     0.00413       0.56683
  62    C  5  py     Val( 2p)     1.13642      -0.08388
  63    C  5  py     Ryd( 3p)     0.00226       0.58015
  64    C  5  pz     Val( 2p)     1.23544      -0.07465
  65    C  5  pz     Ryd( 3p)     0.00144       0.69528
  66    C  5  dxy    Ryd( 3d)     0.00037       2.10701
  67    C  5  dxz    Ryd( 3d)     0.00040       2.15730
  68    C  5  dyz    Ryd( 3d)     0.00081       2.23284
  69    C  5  dx2y2  Ryd( 3d)     0.00070       2.21247
  70    C  5  dz2    Ryd( 3d)     0.00041       2.19695

  71    C  6  s      Cor( 1s)     1.99913      -9.82437
  72    C  6  s      Val( 2s)     0.99658      -0.19343
  73    C  6  s      Ryd( 3s)     0.00297       0.77063
  74    C  6  px     Val( 2p)     0.75173      -0.06068
  75    C  6  px     Ryd( 3p)     0.00606       0.60038
  76    C  6  py     Val( 2p)     1.08602      -0.06495
  77    C  6  py     Ryd( 3p)     0.00158       0.49159
  78    C  6  pz     Val( 2p)     1.20594      -0.05924
  79    C  6  pz     Ryd( 3p)     0.00209       0.64788
  80    C  6  dxy    Ryd( 3d)     0.00112       2.06519
  81    C  6  dxz    Ryd( 3d)     0.00171       2.14264
  82    C  6  dyz    Ryd( 3d)     0.00068       2.23200
  83    C  6  dx2y2  Ryd( 3d)     0.00158       2.21015
  84    C  6  dz2    Ryd( 3d)     0.00077       2.20053

  85    O  7  s      Cor( 1s)     1.99974     -18.56542
  86    O  7  s      Val( 2s)     1.67550      -0.77499
  87    O  7  s      Ryd( 3s)     0.00151       1.43236
  88    O  7  px     Val( 2p)     1.49859      -0.25270
  89    O  7  px     Ryd( 3p)     0.00128       1.06352
  90    O  7  py     Val( 2p)     1.60293      -0.23495
  91    O  7  py     Ryd( 3p)     0.00200       1.18998
  92    O  7  pz     Val( 2p)     1.94591      -0.22589
  93    O  7  pz     Ryd( 3p)     0.00182       1.02817
  94    O  7  dxy    Ryd( 3d)     0.00108       2.81050
  95    O  7  dxz    Ryd( 3d)     0.00052       2.69863
  96    O  7  dyz    Ryd( 3d)     0.00084       2.65746
  97    O  7  dx2y2  Ryd( 3d)     0.00175       3.16097
  98    O  7  dz2    Ryd( 3d)     0.00096       2.88241

  99    H  8  s      Val( 1s)     0.78174       0.04688
 100    H  8  s      Ryd( 2s)     0.00112       0.30603
 101    H  8  px     Ryd( 2p)     0.00011       1.62698
 102    H  8  py     Ryd( 2p)     0.00088       2.27378
 103    H  8  pz     Ryd( 2p)     0.00018       1.66578

 104    H  9  s      Val( 1s)     0.77646       0.06311
 105    H  9  s      Ryd( 2s)     0.00260       0.32705
 106    H  9  px     Ryd( 2p)     0.00026       1.84797
 107    H  9  py     Ryd( 2p)     0.00027       1.79002
 108    H  9  pz     Ryd( 2p)     0.00055       2.05705

 109    H 10  s      Val( 1s)     0.77688       0.06263
 110    H 10  s      Ryd( 2s)     0.00269       0.32503
 111    H 10  px     Ryd( 2p)     0.00016       1.74277
 112    H 10  py     Ryd( 2p)     0.00032       1.82577
 113    H 10  pz     Ryd( 2p)     0.00061       2.11823

 114    H 11  s      Val( 1s)     0.60158       0.07253
 115    H 11  s      Ryd( 2s)     0.00289       0.36259
 116    H 11  px     Ryd( 2p)     0.00065       2.07820
 117    H 11  py     Ryd( 2p)     0.00079       2.14819
 118    H 11  pz     Ryd( 2p)     0.00064       1.62067

 119    H 12  s      Val( 1s)     0.75313       0.06353
 120    H 12  s      Ryd( 2s)     0.00425       0.33408
 121    H 12  px     Ryd( 2p)     0.00026       1.81291
 122    H 12  py     Ryd( 2p)     0.00026       1.88919
 123    H 12  pz     Ryd( 2p)     0.00063       2.10493

 124    H 13  s      Val( 1s)     0.75323       0.06343
 125    H 13  s      Ryd( 2s)     0.00417       0.33519
 126    H 13  px     Ryd( 2p)     0.00036       1.88356
 127    H 13  py     Ryd( 2p)     0.00020       1.84564
 128    H 13  pz     Ryd( 2p)     0.00057       2.08067

 129    H 14  s      Val( 1s)     0.80602       0.06997
 130    H 14  s      Ryd( 2s)     0.00352       0.33856
 131    H 14  px     Ryd( 2p)     0.00024       1.80554
 132    H 14  py     Ryd( 2p)     0.00034       1.85124
 133    H 14  pz     Ryd( 2p)     0.00066       2.08962

 134    H 15  s      Val( 1s)     0.80646       0.06930
 135    H 15  s      Ryd( 2s)     0.00349       0.33851
 136    H 15  px     Ryd( 2p)     0.00032       1.87559
 137    H 15  py     Ryd( 2p)     0.00028       1.80367
 138    H 15  pz     Ryd( 2p)     0.00064       2.06983

 139    H 16  s      Val( 1s)     0.54151       0.08685
 140    H 16  s      Ryd( 2s)     0.00169       0.39634
 141    H 16  px     Ryd( 2p)     0.00108       1.83817
 142    H 16  py     Ryd( 2p)     0.00164       2.43733
 143    H 16  pz     Ryd( 2p)     0.00154       1.65151


 Summary of Natural Population Analysis:

                                     Natural Population
             Natural    ---------------------------------------------
  Atom No    Charge        Core      Valence    Rydberg      Total
 --------------------------------------------------------------------
    C  1   -0.43298      1.99928     4.42193    0.01177     6.43298
    N  2   -0.63977      1.99914     5.63013    0.01050     7.63977
    C  3    0.66751      1.99920     3.28669    0.04661     5.33249
    O  4   -0.60974      1.99973     6.59877    0.01123     8.60974
    C  5   -0.55473      1.99905     4.54335    0.01233     6.55473
    C  6   -0.05797      1.99913     4.04027    0.01856     6.05797
    O  7   -0.73443      1.99974     6.72293    0.01176     8.73443
    H  8    0.21598      0.00000     0.78174    0.00228     0.78402
    H  9    0.21985      0.00000     0.77646    0.00369     0.78015
    H 10    0.21933      0.00000     0.77688    0.00379     0.78067
    H 11    0.39345      0.00000     0.60158    0.00497     0.60655
    H 12    0.24148      0.00000     0.75313    0.00540     0.75852
    H 13    0.24146      0.00000     0.75323    0.00530     0.75854
    H 14    0.18921      0.00000     0.80602    0.00477     0.81079
    H 15    0.18882      0.00000     0.80646    0.00472     0.81118
    H 16    0.45253      0.00000     0.54151    0.00596     0.54747
 ====================================================================
 * Total *  0.00000     13.99527    41.84108    0.16364    56.00000

                                 Natural Population
 ---------------------------------------------------------
   Core                      13.99527 ( 99.9662% of   14)
   Valence                   41.84108 ( 99.6216% of   42)
   Natural Minimal Basis     55.83636 ( 99.7078% of   56)
   Natural Rydberg Basis      0.16364 (  0.2922% of   56)
 ---------------------------------------------------------

    Atom No         Natural Electron Configuration
 ----------------------------------------------------------------------------
      C  1      [core]2s( 1.07)2p( 3.35)3p( 0.01)
      N  2      [core]2s( 1.25)2p( 4.38)3p( 0.01)
      C  3      [core]2s( 0.74)2p( 2.55)3p( 0.03)3d( 0.01)
      O  4      [core]2s( 1.69)2p( 4.91)3d( 0.01)
      C  5      [core]2s( 1.05)2p( 3.50)3p( 0.01)
      C  6      [core]2s( 1.00)2p( 3.04)3p( 0.01)3d( 0.01)
      O  7      [core]2s( 1.68)2p( 5.05)3p( 0.01)3d( 0.01)
      H  8            1s( 0.78)
      H  9            1s( 0.78)
      H 10            1s( 0.78)
      H 11            1s( 0.60)
      H 12            1s( 0.75)
      H 13            1s( 0.75)
      H 14            1s( 0.81)
      H 15            1s( 0.81)
      H 16            1s( 0.54)


 NATURAL BOND ORBITAL ANALYSIS:

                            Occupancies       Lewis Structure    Low   High
         Max    Occ     -------------------  -----------------   occ   occ
  Cycle  Ctr   Thresh    Lewis   non-Lewis     CR  BD  nC  LP    (L)   (NL)
 ============================================================================
    1     2     1.90    55.17843   0.82157      7  16   0   5     2      1
    2     2     1.85    55.19932   0.80068      7  16   0   5     1      1
    3     2     1.75    55.19932   0.80068      7  16   0   5     1      1
    4     2     1.69    55.19932   0.80068      7  16   0   5     0      1
    5     2     1.85    55.19932   0.80068      7  16   0   5     1      1
 ----------------------------------------------------------------------------

 Strongly delocalized structure accepted

 -------------------------------------------------------
   Core                     13.99527 ( 99.966% of  14)
   Valence Lewis            41.20405 ( 98.105% of  42)
  ==================      =============================
   Total Lewis              55.19932 ( 98.570% of  56)
  -----------------------------------------------------
   Valence non-Lewis         0.68327 (  1.220% of  56)
   Rydberg non-Lewis         0.11741 (  0.210% of  56)
  ==================      =============================
   Total non-Lewis           0.80068 (  1.430% of  56)
 -------------------------------------------------------


     (Occupancy)   Bond orbital / Coefficients / Hybrids
 ------------------ Lewis ------------------------------------------------------
   1. (1.99928) CR ( 1) C  1            s(100.00%)
                                         1.0000  0.0000  0.0000  0.0000  0.0000
                                         0.0000  0.0000  0.0000  0.0000  0.0000
                                         0.0000  0.0000  0.0000  0.0000
   2. (1.99914) CR ( 1) N  2            s(100.00%)
                                         1.0000  0.0000  0.0000  0.0000  0.0000
                                         0.0000  0.0000  0.0000  0.0000  0.0000
                                         0.0000  0.0000  0.0000  0.0000
   3. (1.99920) CR ( 1) C  3            s(100.00%)
                                         1.0000  0.0000  0.0000  0.0000  0.0000
                                         0.0000  0.0000  0.0000  0.0000  0.0000
                                         0.0000  0.0000  0.0000  0.0000
   4. (1.99973) CR ( 1) O  4            s(100.00%)
                                         1.0000  0.0000  0.0000  0.0000  0.0000
                                         0.0000  0.0000  0.0000  0.0000  0.0000
                                         0.0000  0.0000  0.0000  0.0000
   5. (1.99905) CR ( 1) C  5            s(100.00%)
                                         1.0000  0.0000  0.0000  0.0000  0.0000
                                         0.0000  0.0000  0.0000  0.0000  0.0000
                                         0.0000  0.0000  0.0000  0.0000
   6. (1.99913) CR ( 1) C  6            s(100.00%)
                                         1.0000  0.0000  0.0000  0.0000  0.0000
                                         0.0000  0.0000  0.0000  0.0000  0.0000
                                         0.0000  0.0000  0.0000  0.0000
   7. (1.99974) CR ( 1) O  7            s(100.00%)
                                         1.0000  0.0000  0.0000  0.0000  0.0000
                                         0.0000  0.0000  0.0000  0.0000  0.0000
                                         0.0000  0.0000  0.0000  0.0000
   8. (1.69451) LP ( 1) N  2            s(  0.00%)p 1.00( 99.99%)d 0.00(  0.01%)
                                         0.0000  0.0005  0.0003  0.1090  0.0009
                                        -0.0562 -0.0005 -0.9922 -0.0194 -0.0010
                                        -0.0037  0.0071  0.0001 -0.0015
   9. (1.97438) LP ( 1) O  4            s( 56.48%)p 0.77( 43.49%)d 0.00(  0.03%)
                                         0.0000  0.7515 -0.0102 -0.4200  0.0005
                                        -0.5081  0.0020 -0.0176  0.0000 -0.0133
                                        -0.0009 -0.0003  0.0029  0.0103
  10. (1.85316) LP ( 2) O  4            s(  0.00%)p 1.00( 99.89%)d 0.00(  0.11%)
                                         0.0000  0.0026  0.0018  0.7646 -0.0110
                                        -0.6324  0.0093  0.1189 -0.0015  0.0065
                                         0.0032  0.0025  0.0320  0.0000
  11. (1.98017) LP ( 1) O  7            s( 48.71%)p 1.05( 51.24%)d 0.00(  0.04%)
                                         0.0000  0.6978 -0.0138  0.4706 -0.0035
                                         0.5392 -0.0082  0.0133  0.0001 -0.0194
                                         0.0007 -0.0012  0.0035  0.0051
  12. (1.95620) LP ( 2) O  7            s(  0.00%)p 1.00( 99.94%)d 0.00(  0.06%)
                                         0.0000  0.0037  0.0003 -0.1059  0.0017
                                         0.0631 -0.0012  0.9919 -0.0172  0.0013
                                        -0.0137 -0.0203  0.0028 -0.0004
  13. (1.98945) BD ( 1) C  1- N  2
               ( 37.58%)   0.6131* C  1 s( 24.54%)p 3.07( 75.33%)d 0.01(  0.13%)
                                         0.0000  0.4951  0.0176  0.8384  0.0365
                                        -0.1958  0.0139  0.1028  0.0024 -0.0110
                                         0.0072 -0.0015  0.0281 -0.0179
               ( 62.42%)   0.7900* N  2 s( 33.98%)p 1.94( 65.99%)d 0.00(  0.03%)
                                         0.0000  0.5829  0.0071 -0.7774 -0.0027
                                         0.2137 -0.0216 -0.0972  0.0014 -0.0042
                                         0.0040 -0.0011  0.0116 -0.0128
  14. (1.98864) BD ( 1) C  1- H  8
               ( 60.82%)   0.7799* C  1 s( 24.53%)p 3.07( 75.43%)d 0.00(  0.04%)
                                         0.0000  0.4953  0.0026 -0.0832 -0.0067
                                         0.8625 -0.0091 -0.0575 -0.0003  0.0009
                                        -0.0002 -0.0018 -0.0177 -0.0094
               ( 39.18%)   0.6260* H  8 s( 99.89%)p 0.00(  0.11%)
                                         0.9995 -0.0009  0.0073 -0.0320  0.0025
  15. (1.98973) BD ( 1) C  1- H  9
               ( 61.45%)   0.7839* C  1 s( 25.47%)p 2.92( 74.49%)d 0.00(  0.04%)
                                         0.0000  0.5047 -0.0066 -0.4478 -0.0074
                                        -0.2876  0.0078  0.6793 -0.0099  0.0049
                                        -0.0132 -0.0087  0.0013  0.0093
               ( 38.55%)   0.6209* H  9 s( 99.90%)p 0.00(  0.10%)
                                         0.9995 -0.0048  0.0174  0.0114 -0.0235
  16. (1.98971) BD ( 1) C  1- H 10
               ( 61.43%)   0.7838* C  1 s( 25.47%)p 2.93( 74.50%)d 0.00(  0.04%)
                                         0.0000  0.5046 -0.0056 -0.2942 -0.0087
                                        -0.3663  0.0086 -0.7239  0.0069  0.0039
                                         0.0085  0.0115 -0.0022  0.0115
               ( 38.57%)   0.6210* H 10 s( 99.90%)p 0.00(  0.10%)
                                         0.9995 -0.0050  0.0123  0.0143  0.0255
  17. (1.99002) BD ( 1) N  2- C  3
               ( 63.33%)   0.7958* N  2 s( 38.74%)p 1.58( 61.22%)d 0.00(  0.05%)
                                         0.0000  0.6224  0.0016  0.2556 -0.0105
                                        -0.7361  0.0047  0.0701 -0.0012 -0.0086
                                         0.0019 -0.0030 -0.0126 -0.0144
               ( 36.67%)   0.6056* C  3 s( 31.60%)p 2.16( 68.27%)d 0.00(  0.14%)
                                         0.0000  0.5621  0.0081 -0.2977 -0.0113
                                         0.7665  0.0240 -0.0756 -0.0027 -0.0182
                                         0.0019 -0.0052 -0.0254 -0.0190
  18. (1.98599) BD ( 1) N  2- H 11
               ( 70.34%)   0.8387* N  2 s( 27.19%)p 2.68( 72.77%)d 0.00(  0.04%)
                                         0.0000  0.5214 -0.0020  0.5640 -0.0054
                                         0.6393 -0.0173  0.0260  0.0000  0.0157
                                         0.0013  0.0005 -0.0001 -0.0117
               ( 29.66%)   0.5446* H 11 s( 99.80%)p 0.00(  0.20%)
                                         0.9990 -0.0061 -0.0301 -0.0336 -0.0015
  19. (1.99269) BD ( 1) C  3- O  4
               ( 34.16%)   0.5845* C  3 s( 31.87%)p 2.13( 67.95%)d 0.01(  0.18%)
                                         0.0000  0.5642  0.0197 -0.5354 -0.0431
                                        -0.6232 -0.0456 -0.0232 -0.0025  0.0355
                                         0.0018  0.0015 -0.0037 -0.0222
               ( 65.84%)   0.8114* O  4 s( 43.51%)p 1.29( 56.31%)d 0.00(  0.17%)
                                         0.0000  0.6594  0.0177  0.4747  0.0136
                                         0.5805  0.0159  0.0201  0.0005  0.0361
                                         0.0008  0.0016 -0.0078 -0.0195
  20. (1.98758) BD ( 2) C  3- O  4
               ( 31.38%)   0.5601* C  3 s(  0.00%)p 1.00( 99.70%)d 0.00(  0.30%)
                                         0.0000  0.0005 -0.0001  0.1084 -0.0022
                                        -0.0558  0.0008 -0.9904  0.0349 -0.0025
                                         0.0358  0.0413 -0.0064  0.0028
               ( 68.62%)   0.8284* O  4 s(  0.00%)p 1.00( 99.84%)d 0.00(  0.16%)
                                         0.0000  0.0004  0.0001  0.1087  0.0009
                                        -0.0550 -0.0003 -0.9917 -0.0118  0.0020
                                        -0.0249 -0.0304  0.0044 -0.0019
  21. (1.97373) BD ( 1) C  3- C  5
               ( 47.94%)   0.6924* C  3 s( 36.28%)p 1.76( 63.68%)d 0.00(  0.04%)
                                         0.0000  0.6020 -0.0189  0.7815 -0.0277
                                        -0.1287  0.0048  0.0931 -0.0025 -0.0003
                                         0.0038  0.0000  0.0180 -0.0095
               ( 52.06%)   0.7215* C  5 s( 27.16%)p 2.68( 72.80%)d 0.00(  0.04%)
                                         0.0000  0.5212  0.0003 -0.8409 -0.0003
                                         0.1060  0.0052 -0.0980  0.0004 -0.0037
                                         0.0038 -0.0004  0.0165 -0.0094
  22. (1.97952) BD ( 1) C  5- C  6
               ( 51.75%)   0.7193* C  5 s( 28.75%)p 2.48( 71.22%)d 0.00(  0.03%)
                                         0.0000  0.5360  0.0135  0.2217  0.0135
                                        -0.8112  0.0026  0.0696  0.0013 -0.0060
                                         0.0006 -0.0024 -0.0134 -0.0093
               ( 48.25%)   0.6947* C  6 s( 29.65%)p 2.37( 70.31%)d 0.00(  0.04%)
                                         0.0000  0.5445  0.0064 -0.2175  0.0178
                                         0.8067 -0.0040 -0.0688  0.0023 -0.0063
                                         0.0003 -0.0026 -0.0171 -0.0095
  23. (1.96267) BD ( 1) C  5- H 12
               ( 62.14%)   0.7883* C  5 s( 22.05%)p 3.53( 77.92%)d 0.00(  0.03%)
                                         0.0000  0.4696 -0.0033  0.2633  0.0088
                                         0.4437  0.0009  0.7161 -0.0058  0.0030
                                         0.0055  0.0142 -0.0031  0.0090
               ( 37.86%)   0.6153* H 12 s( 99.89%)p 0.00(  0.11%)
                                         0.9995 -0.0051 -0.0123 -0.0140 -0.0266
  24. (1.96269) BD ( 1) C  5- H 13
               ( 62.14%)   0.7883* C  5 s( 22.03%)p 3.54( 77.94%)d 0.00(  0.03%)
                                         0.0000  0.4694 -0.0037  0.4169  0.0082
                                         0.3651  0.0018 -0.6871  0.0074  0.0050
                                        -0.0097 -0.0118  0.0000  0.0087
               ( 37.86%)   0.6153* H 13 s( 99.90%)p 0.00(  0.10%)
                                         0.9995 -0.0050 -0.0179 -0.0111  0.0246
  25. (1.99362) BD ( 1) C  6- O  7
               ( 32.78%)   0.5726* C  6 s( 20.58%)p 3.85( 79.21%)d 0.01(  0.20%)
                                         0.0000  0.4516  0.0437  0.8815  0.0393
                                        -0.0593 -0.0014  0.0997  0.0040 -0.0043
                                         0.0088 -0.0007  0.0375 -0.0230
               ( 67.22%)   0.8198* O  7 s( 31.75%)p 2.15( 68.18%)d 0.00(  0.08%)
                                         0.0000  0.5634  0.0071 -0.8208 -0.0014
                                        -0.0099  0.0026 -0.0891 -0.0003  0.0105
                                         0.0048  0.0003  0.0180 -0.0182
  26. (1.98571) BD ( 1) C  6- H 14
               ( 60.31%)   0.7766* C  6 s( 24.95%)p 3.01( 75.01%)d 0.00(  0.04%)
                                         0.0000  0.4993 -0.0136 -0.2051  0.0012
                                        -0.4527 -0.0058 -0.7092  0.0127  0.0036
                                         0.0084  0.0129 -0.0042  0.0115
               ( 39.69%)   0.6300* H 14 s( 99.89%)p 0.00(  0.11%)
                                         0.9994 -0.0073  0.0109  0.0164  0.0260
  27. (1.98573) BD ( 1) C  6- H 15
               ( 60.28%)   0.7764* C  6 s( 24.94%)p 3.01( 75.02%)d 0.00(  0.04%)
                                         0.0000  0.4992 -0.0140 -0.3584  0.0030
                                        -0.3742 -0.0071  0.6939 -0.0116  0.0050
                                        -0.0135 -0.0103 -0.0004  0.0095
               ( 39.72%)   0.6302* H 15 s( 99.89%)p 0.00(  0.11%)
                                         0.9994 -0.0072  0.0162  0.0135 -0.0247
  28. (1.98815) BD ( 1) O  7- H 16
               ( 72.90%)   0.8538* O  7 s( 19.55%)p 4.11( 80.33%)d 0.01(  0.12%)
                                         0.0000  0.4416  0.0221  0.3038  0.0286
                                        -0.8381 -0.0250  0.0842  0.0049 -0.0028
                                         0.0003 -0.0039 -0.0294 -0.0176
               ( 27.10%)   0.5206* H 16 s( 99.69%)p 0.00(  0.31%)
                                         0.9984 -0.0032 -0.0227  0.0509 -0.0057
 ---------------- non-Lewis ----------------------------------------------------
  29. (0.01413) BD*( 1) C  1- N  2
               ( 62.42%)   0.7900* C  1 s( 24.54%)p 3.07( 75.33%)d 0.01(  0.13%)
                                         0.0000  0.4951  0.0176  0.8384  0.0365
                                        -0.1958  0.0139  0.1028  0.0024 -0.0110
                                         0.0072 -0.0015  0.0281 -0.0179
               ( 37.58%)  -0.6131* N  2 s( 33.98%)p 1.94( 65.99%)d 0.00(  0.03%)
                                         0.0000  0.5829  0.0071 -0.7774 -0.0027
                                         0.2137 -0.0216 -0.0972  0.0014 -0.0042
                                         0.0040 -0.0011  0.0116 -0.0128
  30. (0.00563) BD*( 1) C  1- H  8
               ( 39.18%)   0.6260* C  1 s( 24.53%)p 3.07( 75.43%)d 0.00(  0.04%)
                                         0.0000 -0.4953 -0.0026  0.0832  0.0067
                                        -0.8625  0.0091  0.0575  0.0003 -0.0009
                                         0.0002  0.0018  0.0177  0.0094
               ( 60.82%)  -0.7799* H  8 s( 99.89%)p 0.00(  0.11%)
                                        -0.9995  0.0009 -0.0073  0.0320 -0.0025
  31. (0.01648) BD*( 1) C  1- H  9
               ( 38.55%)   0.6209* C  1 s( 25.47%)p 2.92( 74.49%)d 0.00(  0.04%)
                                         0.0000 -0.5047  0.0066  0.4478  0.0074
                                         0.2876 -0.0078 -0.6793  0.0099 -0.0049
                                         0.0132  0.0087 -0.0013 -0.0093
               ( 61.45%)  -0.7839* H  9 s( 99.90%)p 0.00(  0.10%)
                                        -0.9995  0.0048 -0.0174 -0.0114  0.0235
  32. (0.01672) BD*( 1) C  1- H 10
               ( 38.57%)   0.6210* C  1 s( 25.47%)p 2.93( 74.50%)d 0.00(  0.04%)
                                         0.0000 -0.5046  0.0056  0.2942  0.0087
                                         0.3663 -0.0086  0.7239 -0.0069 -0.0039
                                        -0.0085 -0.0115  0.0022 -0.0115
               ( 61.43%)  -0.7838* H 10 s( 99.90%)p 0.00(  0.10%)
                                        -0.9995  0.0050 -0.0123 -0.0143 -0.0255
  33. (0.07902) BD*( 1) N  2- C  3
               ( 36.67%)   0.6056* N  2 s( 38.74%)p 1.58( 61.22%)d 0.00(  0.05%)
                                         0.0000 -0.6224 -0.0016 -0.2556  0.0105
                                         0.7361 -0.0047 -0.0701  0.0012  0.0086
                                        -0.0019  0.0030  0.0126  0.0144
               ( 63.33%)  -0.7958* C  3 s( 31.60%)p 2.16( 68.27%)d 0.00(  0.14%)
                                         0.0000 -0.5621 -0.0081  0.2977  0.0113
                                        -0.7665 -0.0240  0.0756  0.0027  0.0182
                                        -0.0019  0.0052  0.0254  0.0190
  34. (0.01950) BD*( 1) N  2- H 11
               ( 29.66%)   0.5446* N  2 s( 27.19%)p 2.68( 72.77%)d 0.00(  0.04%)
                                         0.0000 -0.5214  0.0020 -0.5640  0.0054
                                        -0.6393  0.0173 -0.0260  0.0000 -0.0157
                                        -0.0013 -0.0005  0.0001  0.0117
               ( 70.34%)  -0.8387* H 11 s( 99.80%)p 0.00(  0.20%)
                                        -0.9990  0.0061  0.0301  0.0336  0.0015
  35. (0.01535) BD*( 1) C  3- O  4
               ( 65.84%)   0.8114* C  3 s( 31.87%)p 2.13( 67.95%)d 0.01(  0.18%)
                                         0.0000  0.5642  0.0197 -0.5354 -0.0431
                                        -0.6232 -0.0456 -0.0232 -0.0025  0.0355
                                         0.0018  0.0015 -0.0037 -0.0222
               ( 34.16%)  -0.5845* O  4 s( 43.51%)p 1.29( 56.31%)d 0.00(  0.17%)
                                         0.0000  0.6594  0.0177  0.4747  0.0136
                                         0.5805  0.0159  0.0201  0.0005  0.0361
                                         0.0008  0.0016 -0.0078 -0.0195
  36. (0.31439) BD*( 2) C  3- O  4
               ( 68.62%)   0.8284* C  3 s(  0.00%)p 1.00( 99.70%)d 0.00(  0.30%)
                                         0.0000  0.0005 -0.0001  0.1084 -0.0022
                                        -0.0558  0.0008 -0.9904  0.0349 -0.0025
                                         0.0358  0.0413 -0.0064  0.0028
               ( 31.38%)  -0.5601* O  4 s(  0.00%)p 1.00( 99.84%)d 0.00(  0.16%)
                                         0.0000  0.0004  0.0001  0.1087  0.0009
                                        -0.0550 -0.0003 -0.9917 -0.0118  0.0020
                                        -0.0249 -0.0304  0.0044 -0.0019
  37. (0.06845) BD*( 1) C  3- C  5
               ( 52.06%)   0.7215* C  3 s( 36.28%)p 1.76( 63.68%)d 0.00(  0.04%)
                                         0.0000  0.6020 -0.0189  0.7815 -0.0277
                                        -0.1287  0.0048  0.0931 -0.0025 -0.0003
                                         0.0038  0.0000  0.0180 -0.0095
               ( 47.94%)  -0.6924* C  5 s( 27.16%)p 2.68( 72.80%)d 0.00(  0.04%)
                                         0.0000  0.5212  0.0003 -0.8409 -0.0003
                                         0.1060  0.0052 -0.0980  0.0004 -0.0037
                                         0.0038 -0.0004  0.0165 -0.0094
  38. (0.01746) BD*( 1) C  5- C  6
               ( 48.25%)   0.6947* C  5 s( 28.75%)p 2.48( 71.22%)d 0.00(  0.03%)
                                         0.0000 -0.5360 -0.0135 -0.2217 -0.0135
                                         0.8112 -0.0026 -0.0696 -0.0013  0.0060
                                        -0.0006  0.0024  0.0134  0.0093
               ( 51.75%)  -0.7193* C  6 s( 29.65%)p 2.37( 70.31%)d 0.00(  0.04%)
                                         0.0000 -0.5445 -0.0064  0.2175 -0.0178
                                        -0.8067  0.0040  0.0688 -0.0023  0.0063
                                        -0.0003  0.0026  0.0171  0.0095
  39. (0.01752) BD*( 1) C  5- H 12
               ( 37.86%)   0.6153* C  5 s( 22.05%)p 3.53( 77.92%)d 0.00(  0.03%)
                                         0.0000 -0.4696  0.0033 -0.2633 -0.0088
                                        -0.4437 -0.0009 -0.7161  0.0058 -0.0030
                                        -0.0055 -0.0142  0.0031 -0.0090
               ( 62.14%)  -0.7883* H 12 s( 99.89%)p 0.00(  0.11%)
                                        -0.9995  0.0051  0.0123  0.0140  0.0266
  40. (0.01748) BD*( 1) C  5- H 13
               ( 37.86%)   0.6153* C  5 s( 22.03%)p 3.54( 77.94%)d 0.00(  0.03%)
                                         0.0000 -0.4694  0.0037 -0.4169 -0.0082
                                        -0.3651 -0.0018  0.6871 -0.0074 -0.0050
                                         0.0097  0.0118  0.0000 -0.0087
               ( 62.14%)  -0.7883* H 13 s( 99.90%)p 0.00(  0.10%)
                                        -0.9995  0.0050  0.0179  0.0111 -0.0246
  41. (0.01342) BD*( 1) C  6- O  7
               ( 67.22%)   0.8198* C  6 s( 20.58%)p 3.85( 79.21%)d 0.01(  0.20%)
                                         0.0000  0.4516  0.0437  0.8815  0.0393
                                        -0.0593 -0.0014  0.0997  0.0040 -0.0043
                                         0.0088 -0.0007  0.0375 -0.0230
               ( 32.78%)  -0.5726* O  7 s( 31.75%)p 2.15( 68.18%)d 0.00(  0.08%)
                                         0.0000  0.5634  0.0071 -0.8208 -0.0014
                                        -0.0099  0.0026 -0.0891 -0.0003  0.0105
                                         0.0048  0.0003  0.0180 -0.0182
  42. (0.03094) BD*( 1) C  6- H 14
               ( 39.69%)   0.6300* C  6 s( 24.95%)p 3.01( 75.01%)d 0.00(  0.04%)
                                         0.0000 -0.4993  0.0136  0.2051 -0.0012
                                         0.4527  0.0058  0.7092 -0.0127 -0.0036
                                        -0.0084 -0.0129  0.0042 -0.0115
               ( 60.31%)  -0.7766* H 14 s( 99.89%)p 0.00(  0.11%)
                                        -0.9994  0.0073 -0.0109 -0.0164 -0.0260
  43. (0.03077) BD*( 1) C  6- H 15
               ( 39.72%)   0.6302* C  6 s( 24.94%)p 3.01( 75.02%)d 0.00(  0.04%)
                                         0.0000 -0.4992  0.0140  0.3584 -0.0030
                                         0.3742  0.0071 -0.6939  0.0116 -0.0050
                                         0.0135  0.0103  0.0004 -0.0095
               ( 60.28%)  -0.7764* H 15 s( 99.89%)p 0.00(  0.11%)
                                        -0.9994  0.0072 -0.0162 -0.0135  0.0247
  44. (0.00602) BD*( 1) O  7- H 16
               ( 27.10%)   0.5206* O  7 s( 19.55%)p 4.11( 80.33%)d 0.01(  0.12%)
                                         0.0000 -0.4416 -0.0221 -0.3038 -0.0286
                                         0.8381  0.0250 -0.0842 -0.0049  0.0028
                                        -0.0003  0.0039  0.0294  0.0176
               ( 72.90%)  -0.8538* H 16 s( 99.69%)p 0.00(  0.31%)
                                        -0.9984  0.0032  0.0227 -0.0509  0.0057
  45. (0.00454) RY ( 1) C  1            s( 10.18%)p 8.50( 86.56%)d 0.32(  3.26%)
                                         0.0000  0.0066  0.3190 -0.0121  0.2574
                                        -0.0135 -0.8915 -0.0004  0.0647 -0.1789
                                        -0.0020 -0.0187 -0.0159 -0.0007
  46. (0.00201) RY ( 2) C  1            s(  0.07%)p99.99( 56.05%)d99.99( 43.88%)
                                         0.0000 -0.0013  0.0257 -0.0007  0.1214
                                         0.0001 -0.0043 -0.0182 -0.7385 -0.0315
                                        -0.6412  0.0686  0.0730 -0.1289
  47. (0.00081) RY ( 3) C  1            s(  9.07%)p 8.43( 76.49%)d 1.59( 14.44%)
                                         0.0000 -0.0109  0.3010 -0.0429  0.8135
                                         0.0165  0.2978 -0.0041  0.1107  0.2338
                                         0.0593  0.0376  0.2909  0.0157
  48. (0.00019) RY ( 4) C  1            s( 53.00%)p 0.29( 15.42%)d 0.60( 31.59%)
                                         0.0000  0.0000  0.7280  0.0086 -0.3884
                                        -0.0078  0.0383  0.0020 -0.0415  0.5399
                                        -0.0151  0.0469 -0.1210 -0.0854
  49. (0.00011) RY ( 5) C  1            s(  8.76%)p 1.20( 10.53%)d 9.21( 80.71%)
                                         0.0000 -0.0033  0.2960 -0.0106  0.1804
                                        -0.0129  0.2692  0.0002 -0.0001 -0.4791
                                         0.0418 -0.1206 -0.6779 -0.3188
  50. (0.00004) RY ( 6) C  1            s(  0.04%)p99.99( 38.16%)d99.99( 61.80%)
  51. (0.00001) RY ( 7) C  1            s(  7.08%)p 0.98(  6.96%)d12.14( 85.96%)
  52. (0.00000) RY ( 8) C  1            s(  0.01%)p99.99(  5.96%)d99.99( 94.03%)
  53. (0.00000) RY ( 9) C  1            s( 11.78%)p 0.35(  4.13%)d 7.14( 84.09%)
  54. (0.00274) RY ( 1) N  2            s( 43.87%)p 1.21( 52.95%)d 0.07(  3.18%)
                                         0.0000 -0.0134  0.6622  0.0049 -0.6766
                                         0.0026 -0.0867 -0.0051  0.2533 -0.1277
                                         0.1102  0.0076  0.0122 -0.0560
  55. (0.00258) RY ( 2) N  2            s(  5.77%)p15.03( 86.76%)d 1.29(  7.46%)
                                         0.0000 -0.0048  0.2402 -0.0007 -0.1185
                                         0.0016 -0.1039  0.0183 -0.9179 -0.0570
                                        -0.2408 -0.0877  0.0360 -0.0666
  56. (0.00077) RY ( 3) N  2            s( 21.11%)p 2.20( 46.44%)d 1.54( 32.46%)
                                         0.0000  0.0121  0.4593 -0.0099  0.2591
                                         0.0075  0.6301 -0.0011 -0.0108  0.4822
                                        -0.0697  0.0489 -0.2905 -0.0208
  57. (0.00056) RY ( 4) N  2            s( 13.18%)p 2.46( 32.48%)d 4.12( 54.34%)
                                         0.0000 -0.0015  0.3630  0.0069  0.5231
                                         0.0087 -0.2095 -0.0007  0.0844 -0.5972
                                         0.0004 -0.0869 -0.4191 -0.0602
  58. (0.00026) RY ( 5) N  2            s(  0.01%)p 1.00(  1.53%)d64.44( 98.47%)
                                         0.0000 -0.0001  0.0074  0.0001  0.0165
                                        -0.0004 -0.0108 -0.0055 -0.1219  0.1333
                                         0.6372 -0.7214 -0.0593  0.1921
  59. (0.00017) RY ( 6) N  2            s( 13.50%)p 3.38( 45.62%)d 3.03( 40.88%)
                                         0.0000 -0.0067  0.3674  0.0100  0.3922
                                        -0.0240 -0.5427  0.0015  0.0845  0.4294
                                         0.0246  0.0721  0.4675  0.0109
  60. (0.00004) RY ( 7) N  2            s(  1.31%)p20.01( 26.25%)d55.20( 72.43%)
  61. (0.00001) RY ( 8) N  2            s(  1.34%)p 1.15(  1.54%)d72.35( 97.12%)
  62. (0.00000) RY ( 9) N  2            s(  0.01%)p 1.00(  6.46%)d14.47( 93.53%)
  63. (0.02049) RY ( 1) C  3            s( 11.04%)p 8.00( 88.39%)d 0.05(  0.57%)
                                         0.0000 -0.0364  0.3303  0.0253 -0.6017
                                         0.0483 -0.7198 -0.0003 -0.0271 -0.0246
                                         0.0089 -0.0009  0.0708  0.0011
  64. (0.00980) RY ( 2) C  3            s(  0.21%)p99.99( 74.05%)d99.99( 25.73%)
                                         0.0000 -0.0287  0.0362  0.0028 -0.6668
                                        -0.0248  0.5344  0.0004 -0.0986 -0.1389
                                        -0.0407 -0.0392 -0.4845 -0.0077
  65. (0.00522) RY ( 3) C  3            s(  0.00%)p 1.00( 25.80%)d 2.88( 74.20%)
                                         0.0000 -0.0001  0.0062 -0.0075 -0.0553
                                         0.0038  0.0291  0.0625  0.5001 -0.0642
                                         0.3491  0.7819 -0.0674 -0.0095
  66. (0.00303) RY ( 4) C  3            s(  2.15%)p11.84( 25.49%)d33.62( 72.36%)
                                         0.0000  0.0101  0.1464  0.0276  0.3774
                                        -0.0134 -0.3296  0.0055  0.0533 -0.1269
                                        -0.0766 -0.0450 -0.8354 -0.0401
  67. (0.00133) RY ( 5) C  3            s(  0.00%)p 1.00( 47.96%)d 1.09( 52.04%)
                                         0.0000 -0.0001  0.0062 -0.0012 -0.0680
                                         0.0010  0.0338  0.0126  0.6882  0.0997
                                         0.3629 -0.6014 -0.0213  0.1287
  68. (0.00080) RY ( 6) C  3            s(  0.77%)p 1.14(  0.88%)d99.99( 98.34%)
                                         0.0000  0.0140  0.0869 -0.0165  0.0826
                                        -0.0341  0.0195  0.0004  0.0142 -0.9640
                                         0.0839 -0.1047  0.1898  0.0109
  69. (0.00054) RY ( 7) C  3            s( 84.06%)p 0.13( 11.08%)d 0.06(  4.85%)
                                         0.0000  0.0021  0.9169  0.0192  0.1717
                                        -0.0068  0.2844  0.0018 -0.0071  0.1256
                                         0.0307  0.0034  0.1110 -0.1396
  70. (0.00020) RY ( 8) C  3            s(  0.00%)p 1.00( 26.54%)d 2.77( 73.46%)
                                         0.0000 -0.0001  0.0047  0.0009 -0.0545
                                        -0.0008  0.0285 -0.0110  0.5113 -0.0576
                                        -0.8329  0.0416  0.0885 -0.1674
  71. (0.00002) RY ( 9) C  3            s(  2.00%)p 0.11(  0.22%)d48.98( 97.79%)
  72. (0.00162) RY ( 1) O  4            s(  0.27%)p99.99( 97.43%)d 8.37(  2.30%)
                                         0.0000 -0.0013  0.0524 -0.0079 -0.7276
                                         0.0053  0.6514 -0.0002 -0.1432 -0.0234
                                        -0.0179 -0.0144 -0.1479  0.0060
  73. (0.00078) RY ( 2) O  4            s(  0.01%)p99.99( 94.54%)d99.99(  5.45%)
                                         0.0000 -0.0001  0.0115  0.0019 -0.1224
                                        -0.0010  0.0734 -0.0202  0.9616 -0.0199
                                         0.0856  0.2141 -0.0299 -0.0037
  74. (0.00010) RY ( 3) O  4            s( 10.75%)p 7.87( 84.62%)d 0.43(  4.63%)
                                         0.0000 -0.0182  0.3274 -0.0152  0.6345
                                        -0.0237  0.6649 -0.0001  0.0262  0.1607
                                        -0.0167  0.0021 -0.1286 -0.0604
  75. (0.00007) RY ( 4) O  4            s( 87.16%)p 0.09(  8.21%)d 0.05(  4.63%)
  76. (0.00002) RY ( 5) O  4            s(  1.25%)p 3.52(  4.40%)d75.55( 94.35%)
  77. (0.00001) RY ( 6) O  4            s(  0.54%)p10.40(  5.61%)d99.99( 93.85%)
  78. (0.00001) RY ( 7) O  4            s(  0.00%)p 1.00(  1.40%)d70.24( 98.59%)
  79. (0.00000) RY ( 8) O  4            s(  0.01%)p 4.82(  0.06%)d99.99( 99.93%)
  80. (0.00000) RY ( 9) O  4            s(  0.00%)p 1.00(  4.20%)d22.81( 95.80%)
  81. (0.00417) RY ( 1) C  5            s(  0.91%)p99.99( 96.17%)d 3.23(  2.93%)
                                         0.0000  0.0122  0.0944  0.0075 -0.9188
                                        -0.0032  0.3219  0.0005 -0.1177  0.1603
                                        -0.0205  0.0159 -0.0533  0.0060
  82. (0.00214) RY ( 2) C  5            s(  6.95%)p12.70( 88.20%)d 0.70(  4.85%)
                                         0.0000 -0.0108  0.2633  0.0005  0.3053
                                         0.0080  0.8878 -0.0004 -0.0244 -0.2120
                                         0.0135 -0.0240 -0.0383 -0.0367
  83. (0.00174) RY ( 3) C  5            s(  1.86%)p40.80( 75.78%)d12.04( 22.37%)
                                         0.0000 -0.0008  0.1363 -0.0010 -0.0919
                                         0.0027  0.0178  0.0177  0.8653  0.0434
                                        -0.1073 -0.4544  0.0597  0.0156
  84. (0.00162) RY ( 4) C  5            s( 87.19%)p 0.10(  8.73%)d 0.05(  4.08%)
                                         0.0000 -0.0023  0.9338  0.0031  0.0042
                                         0.0113 -0.2745 -0.0031 -0.1083  0.0031
                                         0.0362  0.0744  0.1725 -0.0646
  85. (0.00030) RY ( 5) C  5            s(  0.01%)p99.99(  1.74%)d99.99( 98.25%)
                                         0.0000  0.0000  0.0106  0.0003  0.0146
                                        -0.0001 -0.0037 -0.0023 -0.1311  0.1137
                                         0.8541 -0.4413 -0.0601  0.2043
  86. (0.00014) RY ( 6) C  5            s(  2.57%)p 0.68(  1.75%)d37.23( 95.68%)
                                         0.0000 -0.0018  0.1603 -0.0197  0.1252
                                         0.0094 -0.0330 -0.0027  0.0144  0.3899
                                        -0.1216 -0.0014 -0.8886  0.0180
  87. (0.00007) RY ( 7) C  5            s(  0.07%)p94.75(  6.64%)d99.99( 93.29%)
  88. (0.00004) RY ( 8) C  5            s(  0.00%)p 1.00( 21.10%)d 3.74( 78.90%)
  89. (0.00001) RY ( 9) C  5            s(  0.45%)p 0.08(  0.03%)d99.99( 99.51%)
  90. (0.00492) RY ( 1) C  6            s(  1.45%)p67.03( 96.98%)d 1.09(  1.57%)
                                         0.0000  0.0263  0.1174  0.0224 -0.9697
                                         0.0085 -0.1434  0.0016 -0.0918 -0.1171
                                         0.0097 -0.0071  0.0415  0.0113
  91. (0.00326) RY ( 2) C  6            s( 37.27%)p 0.97( 36.05%)d 0.72( 26.67%)
                                         0.0000 -0.0018  0.6105 -0.0305  0.0431
                                        -0.0167  0.5974 -0.0022 -0.0244 -0.5001
                                         0.0165 -0.0644 -0.1025 -0.0418
  92. (0.00221) RY ( 3) C  6            s(  0.00%)p 1.00( 72.45%)d 0.38( 27.55%)
                                         0.0000 -0.0001  0.0069  0.0011  0.0875
                                        -0.0007 -0.0456 -0.0143 -0.8453  0.0554
                                         0.3767 -0.3447 -0.0223  0.1055
  93. (0.00146) RY ( 4) C  6            s(  0.00%)p 1.00( 10.42%)d 8.60( 89.58%)
                                         0.0000  0.0000  0.0001 -0.0027 -0.0313
                                         0.0011  0.0209  0.0237  0.3197  0.0167
                                         0.8967  0.2391 -0.1136  0.1466
  94. (0.00060) RY ( 5) C  6            s( 19.21%)p 0.70( 13.54%)d 3.50( 67.25%)
                                         0.0000 -0.0169  0.4380 -0.0592  0.1285
                                         0.0004 -0.3379 -0.0063  0.0343  0.0073
                                         0.1310  0.0229  0.7726 -0.2405
  95. (0.00033) RY ( 6) C  6            s(  0.74%)p51.14( 37.83%)d83.04( 61.43%)
[...]
  0 C                -3.9      -6.7     -20.6      -1.1     -21.6      -2.8
  1 N               117.1     146.5     127.2     102.6     128.9     117.0
  2 C                -9.2     -31.2      -4.6      -1.3      -2.2     -10.4
  3 O                -0.9      -1.4      -0.4       0.0      -0.4      -0.2
  4 C                 0.3      -1.3      -0.8      -0.0      -0.5      -1.0
  5 C                -0.2      -0.7      -0.1      -0.0      -0.1      -0.1
  6 O                -0.0      -0.1      -0.0      -0.0      -0.0      -0.0
  7 H                -0.0      -0.2       0.5      -0.1       0.9       0.1
  8 H                 0.1       0.1       0.1      -0.0       0.1      -0.0
  9 H                 0.1       0.1       0.2      -0.0       0.2      -0.0
 10 H                -3.0      -4.9      -1.5      -0.1      -5.4      -2.4
 11 H                -0.2      -0.0      -0.0       0.0       0.0      -0.0

                     60        61        62        63        64        65   
                   0.00000   0.00000   0.00000   0.00000   0.00000   0.00000
                   0.00001   0.00000   0.02049   0.00980   0.00522   0.00303
                  --------  --------  --------  --------  --------  --------
  0 C                -0.3      -1.1      -2.8      -7.1      -0.2      -5.6
  1 N               106.6     104.2      -9.0     -27.3      -0.6     -10.7
  2 C                -2.3      -1.1     162.4     181.9     106.8     148.8
  3 O                -0.2      -0.1     -37.3     -14.9      -4.6      -5.2
  4 C                -0.1      -0.0      -9.9     -30.5      -1.4     -24.6
  5 C                -0.1       0.0      -1.9       0.1       0.0      -1.5
  6 O                -0.0      -0.0      -0.2      -0.3      -0.0      -0.6
  7 H                -0.0      -0.0      -0.0      -0.3      -0.0      -0.1
  8 H                -0.0       0.0      -0.2      -0.2       0.0      -0.0
  9 H                -0.0       0.0      -0.2      -0.2       0.0      -0.0
 10 H                -3.4      -1.8       0.1      -1.0       0.0      -0.3
 12 H                -0.0      -0.0      -0.0      -0.1      -0.0       0.1
 13 H                -0.0      -0.0      -0.3       0.1      -0.0      -0.1
 14 H                -0.0      -0.0      -0.3       0.1      -0.0      -0.1

                     66        67        68        69        70        71   
                   0.00000   0.00000   0.00000   0.00000   0.00000   0.00000
                   0.00133   0.00080   0.00054   0.00020   0.00002   0.00162
                  --------  --------  --------  --------  --------  --------
  0 C                 0.3       0.1      -0.4      -0.0      -0.1      -0.2
  1 N                -5.9      -1.9     -56.1      -1.0      -2.5      -1.2
  2 C               110.3     102.6     249.3     109.5     106.6     -17.4
  3 O                -1.6      -0.1       1.4      -0.6      -0.3     120.4
  4 C                -2.0      -0.6     -95.1      -8.3      -3.5      -0.3
  5 C                 0.0      -0.1       1.9       0.2       0.0      -1.0
  6 O                -0.0       0.0      -0.8       0.0      -0.1       0.0
  8 H                -0.2      -0.0      -0.3      -0.1      -0.0       0.0
  9 H                -0.2      -0.0      -0.3      -0.1      -0.0       0.0
 10 H                -0.1       0.1       0.4       0.0      -0.1      -0.0
 11 H                -0.2      -0.0       0.1       0.5      -0.0      -0.0
 12 H                -0.2      -0.0       0.1       0.4      -0.0      -0.0
 13 H                -0.1      -0.0      -0.1      -0.2      -0.0      -0.1
 14 H                -0.1      -0.0      -0.1      -0.2      -0.0      -0.1

                     72        73        74        75        76        77   
                   0.00000   0.00000   0.00000   0.00000   0.00000   0.00000
                   0.00078   0.00010   0.00007   0.00002   0.00001   0.00001
                  --------  --------  --------  --------  --------  --------
  1 N                -0.4      -2.3      -3.5      -0.0      -0.3      -0.0
  2 C                -4.5     -11.3     -17.8      -3.1      -2.7      -0.3
  3 O               105.6     116.2     124.6     103.4     103.7     100.4
  4 C                -0.4      -2.1      -2.7      -0.3      -0.5      -0.0
  5 C                -0.2      -0.1      -0.1       0.0       0.0      -0.0
  6 O                -0.0      -0.1      -0.2      -0.0      -0.0      -0.0
 11 H                -0.0      -0.0      -0.2       0.0      -0.0      -0.0
 12 H                -0.0      -0.0      -0.2       0.0      -0.0      -0.0

                     78        79        80        81        82        83   
                   0.00000   0.00000   0.00000   0.00000   0.00000   0.00000
                   0.00000   0.00000   0.00417   0.00214   0.00174   0.00162
                  --------  --------  --------  --------  --------  --------
  0 C                -0.0      -0.0      -1.0      -0.1      -0.0      -1.1
  1 N                -0.0      -0.1       2.0      -1.7      -0.2      -0.9
  2 C                -0.2      -2.7     -63.9      -6.7      -9.7     -76.2
  3 O               100.3     102.9      -4.2      -0.3      -0.6      -1.7
  4 C                 0.0      -0.1     186.3     144.5     142.1     296.5
  5 C                -0.0      -0.0     -11.0      -8.9     -10.3     -91.3
  6 O                -0.0      -0.0      -3.8      -0.2      -0.2       0.9
 10 H                -0.0      -0.0      -1.3      -1.0      -0.0       0.1
 11 H                -0.0      -0.0      -1.3     -12.5     -14.3     -10.3
 12 H                -0.0      -0.0      -1.4     -12.9      -6.9     -17.2
 13 H                -0.0      -0.0      -0.1      -0.1      -0.1       0.8
 14 H                -0.0      -0.0      -0.1      -0.1       0.2       0.5
 15 H                -0.0      -0.0      -0.1       0.0      -0.0      -0.1

                     84        85        86        87        88        89   
                   0.00000   0.00000   0.00000   0.00000   0.00000   0.00000
                   0.00030   0.00014   0.00007   0.00004   0.00001   0.00492
                  --------  --------  --------  --------  --------  --------
  0 C                -0.0      -0.0      -0.0       0.0      -0.0      -0.1
  1 N                -0.0      -0.3      -0.6      -0.0      -0.0      -1.2
  2 C                -0.7      -2.6      -4.2      -1.5      -1.8      -6.2
  3 O                 0.0       0.0      -0.1      -0.0      -0.1      -0.2
  4 C               107.0     110.2     109.4     121.9     109.7      -7.2
  5 C                -1.7      -3.9      -1.6      -3.1      -1.5     136.4
  6 O                -0.1       0.3      -0.1      -0.1       0.0      -8.0
 11 H                -2.2      -1.8      -1.4      -8.8      -3.2      -0.1
 12 H                -2.3      -1.8      -1.5      -8.8      -3.1      -0.1
 13 H                 0.0      -0.1      -0.0       0.2       0.0      -5.6
 14 H                 0.0      -0.1      -0.0       0.2       0.0      -5.8
 15 H                -0.0       0.0      -0.0      -0.0      -0.0      -1.8

                     90        91        92        93        94        95   
                   0.00000   0.00000   0.00000   0.00000   0.00000   0.00000
                   0.00326   0.00221   0.00146   0.00060   0.00033   0.00013
                  --------  --------  --------  --------  --------  --------
  1 N                -0.6       0.0       0.0      -0.0      -0.7      -0.4
  2 C                 2.6       0.1      -0.0      -0.4       2.1       0.2
  3 O                -0.4      -0.1      -0.0      -0.1      -0.0       0.0
  4 C               -75.2      -6.6      -2.3      -3.7     -29.9      -9.6
  5 C               188.5     135.9     113.6     115.5     133.0     157.2
  6 O               -11.2      -6.2      -0.7       3.0       0.3     -15.9
 11 H                 0.4      -0.1       0.0      -0.1      -0.0      -0.1
 12 H                 0.4      -0.1       0.0      -0.1      -0.0      -0.1
 13 H                -2.2     -11.7      -5.3      -7.2      -1.6     -14.3
 14 H                -2.2     -11.2      -5.3      -7.3      -1.5     -14.4
 15 H                -0.2      -0.0      -0.0       0.4      -1.6      -2.5

                     96        97        98        99       100       101   
                   0.00000   0.00000   0.00000   0.00000   0.00000   0.00000
                   0.00003   0.00001   0.00140   0.00134   0.00008   0.00005
                  --------  --------  --------  --------  --------  --------
  1 N                 0.0      -0.0      -0.1      -0.0      -0.2       0.0
  2 C                 0.0      -0.0      -0.8      -0.1      -0.9      -0.1
  4 C                -5.2      -1.1      -0.4      -0.2       1.1      -2.4
  5 C               117.6     108.5      -8.2      -5.2     -17.7       0.1
  6 O                 0.0      -0.9     112.4     106.6     122.3     109.7
 11 H                 0.3      -0.0      -0.2      -0.1      -0.0       0.0
 12 H                 0.3      -0.0      -0.1      -0.2      -0.0       0.0
 13 H                -6.4      -3.2      -0.4      -0.0      -0.3      -0.1
 14 H                -6.5      -3.1      -0.4       0.0      -0.3      -0.1
 15 H                -0.0      -0.1      -1.9      -0.8      -3.9      -7.0

                    102       103       104       105       106       107   
                   0.00000   0.00000   0.00000   0.00000   0.00000   0.00000
                   0.00002   0.00001   0.00001   0.00000   0.00000   0.00115
                  --------  --------  --------  --------  --------  --------
  0 C                -0.0      -0.0      -0.0      -0.0      -0.0     -38.6
  1 N                -0.0      -0.0      -0.0      -0.0      -0.0       1.0
  2 C                -0.0      -0.1      -0.0      -0.0      -0.0      -0.2
  4 C                 0.0      -0.6      -0.0      -0.1      -0.1      -0.1
  5 C                -2.9      -2.3      -0.1      -0.4      -1.8       0.0
  6 O               105.1     106.1     102.6     104.1     102.3      -0.0
  7 H                -0.0      -0.0      -0.0      -0.0      -0.0     139.9
  8 H                -0.0      -0.0      -0.0      -0.0      -0.0      -0.4
  9 H                -0.0      -0.0      -0.0      -0.0      -0.0      -0.4
 10 H                -0.0      -0.0      -0.0      -0.0      -0.0      -1.2
 15 H                -2.1      -2.9      -2.4      -3.4      -0.1      -0.0

                    108       109       110       111       112       113   
                   0.00000   0.00000   0.00000   0.00000   0.00000   0.00000
                   0.00017   0.00008   0.00002   0.00263   0.00017   0.00011
                  --------  --------  --------  --------  --------  --------
  0 C                -2.9      -4.2      -7.2     -37.1      -2.8      -4.2
  1 N                -0.2      -0.2      -0.3       0.6      -0.2      -0.0
  2 C                -0.0      -0.1       0.0      -1.2      -0.0       0.0
  7 H               103.8     105.2     107.7      -0.4      -0.3      -0.3
  8 H                -0.3      -0.3      -0.1     138.5     103.9     104.9
  9 H                -0.3      -0.3      -0.1      -0.3      -0.5      -0.4

                    114       115       116       117       118       119   
                   0.00000   0.00000   0.00000   0.00000   0.00000   0.00000
                   0.00002   0.00273   0.00017   0.00011   0.00002   0.00296
                  --------  --------  --------  --------  --------  --------
  0 C                -6.7     -37.0      -2.9      -4.2      -6.7      -1.8
  1 N                -0.2       0.6      -0.2      -0.0      -0.2      -9.8
  2 C                -0.0      -1.2      -0.0       0.0      -0.0      -0.9
  4 C                -0.0      -0.0      -0.0      -0.0      -0.0      -1.8
  5 C                -0.0      -0.0      -0.0      -0.0      -0.0      -0.2
  7 H                -0.2      -0.4      -0.3      -0.3      -0.2      -1.1
  8 H               107.2      -0.3      -0.5      -0.4      -0.1      -0.0
  9 H                -0.1     138.4     104.0     104.9     107.2      -0.0
 10 H                -0.0       0.0      -0.0      -0.0      -0.0     117.3
 11 H                -0.0       0.0      -0.0      -0.0      -0.0      -0.7
 12 H                -0.0      -0.0      -0.0      -0.0      -0.0      -0.7

                    120       121       122       123       124       125   
                   0.00000   0.00000   0.00000   0.00000   0.00000   0.00000
                   0.00065   0.00013   0.00004   0.00429   0.00017   0.00012
                  --------  --------  --------  --------  --------  --------
  0 C                -0.1      -0.2      -0.1       0.0      -0.0      -0.0
  1 N                -3.4      -3.4      -5.5      -0.0      -0.1      -0.1
  2 C                -0.1      -0.5      -0.2       0.2      -0.2      -0.1
  3 O                -0.0      -0.0      -0.0       0.0      -0.1      -0.2
  4 C                -0.0      -0.0       0.1     -34.1      -3.1      -3.5
  5 C                -0.0      -0.0      -0.0       0.1      -0.2       0.0
  6 O                -0.0      -0.0      -0.0      -0.1      -0.3      -0.0
 10 H               103.8     104.4     105.9      -0.8      -0.0      -0.0
 11 H                -0.0      -0.0      -0.0     135.2     104.7     104.7
 12 H                -0.0      -0.0      -0.0      -0.2      -0.7      -0.7
 14 H                -0.0      -0.0      -0.0      -0.4      -0.0      -0.0

                    126       127       128       129       130       131   
                   0.00000   0.00000   0.00000   0.00000   0.00000   0.00000
                   0.00004   0.00420   0.00016   0.00012   0.00004   0.00361
                  --------  --------  --------  --------  --------  --------
  1 N                -0.1      -0.0      -0.1      -0.1      -0.0      -0.0
  2 C                -0.0       0.2      -0.2      -0.1      -0.0      -0.8
  3 O                -0.0       0.0      -0.1      -0.2      -0.0      -0.1
  4 C                -8.5     -34.0      -3.1      -3.5      -8.5       0.8
  5 C                -0.0       0.1      -0.2       0.0      -0.0     -35.2
  6 O                -0.0      -0.1      -0.3      -0.0      -0.0       0.1
 10 H                -0.0      -0.8      -0.0      -0.0      -0.0       0.0
 11 H               108.7      -0.2      -0.6      -0.7      -0.0      -0.0
 12 H                -0.0     135.2     104.8     104.6     108.7      -0.3
 13 H                -0.0      -0.4      -0.0      -0.0      -0.0     136.2
 14 H                -0.0      -0.0      -0.0      -0.0      -0.0      -0.4
 15 H                -0.0      -0.0      -0.0      -0.0      -0.0      -0.2

                    132       133       134       135       136       137   
                   0.00000   0.00000   0.00000   0.00000   0.00000   0.00000
                   0.00017   0.00014   0.00003   0.00357   0.00017   0.00014
                  --------  --------  --------  --------  --------  --------
  2 C                -0.1      -0.0      -0.0      -0.8      -0.1      -0.0
  4 C                -0.0      -0.3      -0.1       0.8      -0.0      -0.3
  5 C                -3.6      -2.9      -7.7     -35.1      -3.5      -2.9
  6 O                -0.7      -0.3      -0.5       0.1      -0.7      -0.4
 11 H                -0.0      -0.0      -0.0      -0.3      -0.0      -0.0
 13 H               105.1     104.4     108.4      -0.4      -0.6      -0.5
 14 H                -0.6      -0.5      -0.1     136.1     105.0     104.5
 15 H                -0.0      -0.2      -0.0      -0.2      -0.0      -0.2

                    138       139       140       141       142   
                   0.00000   0.00000   0.00000   0.00000   0.00000
                   0.00003   0.00185   0.00154   0.00088   0.00002
                  --------  --------  --------  --------  --------
  2 C                -0.0      -0.1      -0.0      -0.0       0.0
  4 C                -0.1       0.1      -0.0      -0.1       0.1
  5 C                -7.7      -4.3      -0.1      -0.7      -0.1
  6 O                -0.5      -4.7      -3.1      -2.3      -2.6
 13 H                -0.1      -0.2      -0.0      -0.2      -0.0
 14 H               108.4      -0.2      -0.0      -0.2      -0.0
 15 H                -0.0     109.5     103.2     103.6     102.7

Storing NBOs: 5812.nbo
                                    *** NBOs were stored ***

                                *** returned from GENNBO program ***

-------
TIMINGS
-------

Total SCF time: 0 days 0 hours 0 min 5 sec 

Total time                  ....       5.314 sec
Sum of individual times     ....       5.789 sec  (109.0%)

Fock matrix formation       ....       3.295 sec  ( 62.0%)
  Coulomb formation         ....       1.786 sec  ( 54.2% of F)
  Split-RI-J                ....       1.779 sec  ( 54.0% of F)
  XC integration            ....       1.504 sec  ( 45.7% of F)
    Basis function eval.    ....       0.517 sec  ( 34.4% of XC)
    Density eval.           ....       0.277 sec  ( 18.4% of XC)
    XC-Functional eval.     ....       0.099 sec  (  6.5% of XC)
    XC-Potential eval.      ....       0.572 sec  ( 38.0% of XC)
Diagonalization             ....       0.025 sec  (  0.5%)
Density matrix formation    ....       0.003 sec  (  0.1%)
Population analysis         ....       1.400 sec  ( 26.3%)
Initial guess               ....       0.361 sec  (  6.8%)
Orbital Transformation      ....       0.000 sec  (  0.0%)
Orbital Orthonormalization  ....       0.000 sec  (  0.0%)
DIIS solution               ....       0.006 sec  (  0.1%)
SOSCF solution              ....       0.013 sec  (  0.2%)
Grid generation             ....       0.688 sec  ( 12.9%)
           ************************************************************
           *              Shut down parallel processing               *
           ************************************************************

-------------------------   --------------------
FINAL SINGLE POINT ENERGY      -362.346133589187
-------------------------   --------------------


                            ***************************************
                            *     ORCA property calculations      *
                            ***************************************

                                    ---------------------
                                    Active property flags
                                    ---------------------
   (+) Dipole Moment


------------------------------------------------------------------------------
                       ORCA ELECTRIC PROPERTIES CALCULATION
------------------------------------------------------------------------------

Dipole Moment Calculation                       ... on
Quadrupole Moment Calculation                   ... off
Polarizability Calculation                      ... off
GBWName                                         ... 5812.gbw
Electron density file                           ... 5812.scfp.tmp

-------------
DIPOLE MOMENT
-------------
                                X             Y             Z
Electronic contribution:      1.09956      -2.06173       0.23562
Nuclear contribution   :     -0.86179       2.88012      -0.25226
                        -----------------------------------------
Total Dipole Moment    :      0.23778       0.81839      -0.01664
                        -----------------------------------------
Magnitude (a.u.)       :      0.85239
Magnitude (Debye)      :      2.16661


Timings for individual modules:

Sum of individual times         ...        6.485 sec (=   0.108 min)
GTO integral calculation        ...        0.477 sec (=   0.008 min)   7.4 %
SCF iterations                  ...        6.008 sec (=   0.100 min)  92.6 %
                             ****ORCA TERMINATED NORMALLY****
TOTAL RUN TIME: 0 days 0 hours 0 minutes 6 seconds 885 msec
