
                                 *****************
                                 * O   R   C   A *
                                 *****************

           --- An Ab Initio, DFT and Semiempirical electronic structure package ---

                  #######################################################
                  #                        -***-                        #
                  #  Department of molecular theory and spectroscopy    #
                  #              Directorship: Frank Neese              #
                  # Max Planck Institute for Chemical Energy Conversion #
                  #                  D-45470 Muelheim/Ruhr              #
                  #                       Germany                       #
                  #                                                     #
                  #                  All rights reserved                #
                  #                        -***-                        #
                  #######################################################


                         Program Version 3.0.3 - RELEASE   -


 With contributions from (in alphabetic order):
   Ute Becker             : Parallelization
   Dmytro Bykov           : SCF Hessian
   Dmitry Ganyushin       : Spin-Orbit,Spin-Spin,Magnetic field MRCI
   Andreas Hansen         : Spin unrestricted coupled pair/coupled cluster methods
   Dimitrios Liakos       : Extrapolation schemes; parallel MDCI
   Robert Izsak           : Overlap fitted RIJCOSX, COSX-SCS-MP3
   Christian Kollmar      : KDIIS, OOCD, Brueckner-CCSD(T), CCSD density
   Simone Kossmann        : Meta GGA functionals, TD-DFT gradient, OOMP2, MP2 Hessian
   Taras Petrenko         : DFT Hessian,TD-DFT gradient, ASA and ECA modules, normal mode analysis, Resonance Raman, ABS, FL, XAS/XES, NRVS
   Christoph Reimann      : Effective Core Potentials
   Michael Roemelt        : Restricted open shell CIS
   Christoph Riplinger    : Improved optimizer, TS searches, QM/MM, DLPNO-CCSD
   Barbara Sandhoefer     : DKH picture change effects
   Igor Schapiro          : Molecular dynamics
   Kantharuban Sivalingam : CASSCF convergence, NEVPT2
   Boris Wezisla          : Elementary symmetry handling
   Frank Wennmohs         : Technical directorship


 We gratefully acknowledge several colleagues who have allowed us to
 interface, adapt or use parts of their codes:
   Stefan Grimme, W. Hujo, H. Kruse, T. Risthaus : VdW corrections, initial TS optimization,
                                                   DFT functionals, gCP
   Ed Valeev                                     : LibInt (2-el integral package), F12 methods
   Garnet Chan, S. Sharma, R. Olivares           : DMRG
   Ulf Ekstrom                                   : XCFun DFT Library
   Mihaly Kallay                                 : mrcc  (arbitrary order and MRCC methods)
   Andreas Klamt, Michael Diedenhofen            : otool_cosmo (COSMO solvation model)
   Frank Weinhold                                : gennbo (NPA and NBO analysis)
   Christopher J. Cramer and Donald G. Truhlar   : smd solvation model


 Your calculation uses the libint2 library for the computation of 2-el integrals
 For citations please refer to: http://libint.valeyev.net

 This ORCA versions uses:
   CBLAS   interface :  Fast vector & matrix operations
   LAPACKE interface :  Fast linear algebra routines
   SCALAPACK package :  Parallel linear algebra routines


Your calculation utilizes the basis: Ahlrichs-VDZ
Cite in your paper:
H - Kr: A. Schaefer, H. Horn and R. Ahlrichs, J. Chem. Phys. 97, 2571 (1992).

Your calculation utilizes the basis: Ahlrichs SVPalls1+f
Cite in your paper:
Rb - Xe: A. Schaefer, C. Huber and R. Ahlrichs, J. Chem. Phys. 100, 5829 (1994).

================================================================================
                                        WARNINGS
                       Please study these warnings very carefully!
================================================================================
Now building the actual basis set


INFO   : the flag for use of LIBINT has been found!

================================================================================
                                       INPUT FILE
================================================================================
NAME = 6023.inp
|  1> ! RI PBE def2-SVP def2-SVP/J NBO PAL2
|  2> % maxcore 2000
|  3> % output
|  4>     # printlevel mini
|  5>     print[ P_Basis ] 0
|  6>     print[ P_SCFInfo ] 1
|  7>     print[ P_SCFIterInfo ] 1
|  8>     print[ P_OrbEn ] 0
|  9>     print[ P_Cartesian ] 0
| 10> end
| 11> *xyz 0 1
| 12>  C        2.0087880000    -0.6809950000     1.6156640000 
| 13>  O        2.9533310000    -0.3069170000     0.6376840000 
| 14>  N        3.6108710000    -1.4312010000     0.1849340000 
| 15>  C        4.4685180000    -1.1522520000    -0.7050240000 
| 16>  C        5.2910320000    -2.2274140000    -1.3190740000 
| 17>  C        6.7790130000    -2.0537560000    -1.0392830000 
| 18>  N        7.5436240000    -3.0551970000    -1.7638900000 
| 19>  H        1.5256770000     0.2436260000     1.9317410000 
| 20>  H        2.4952700000    -1.1543800000     2.4734960000 
| 21>  H        1.2616980000    -1.3641670000     1.2014410000 
| 22>  H        4.6145330000    -0.1156030000    -1.0196460000 
| 23>  H        5.1489420000    -2.2270710000    -2.4056780000 
| 24>  H        4.9443960000    -3.1929520000    -0.9401850000 
| 25>  H        6.9366440000    -2.0679040000     0.0501350000 
| 26>  H        7.0983720000    -1.0668210000    -1.3904020000 
| 27>  H        7.3207370000    -3.9830020000    -1.4229480000 
| 28>  H        8.5362350000    -2.9206830000    -1.6192750000 
| 29> *
| 30> 
| 31>                          ****END OF INPUT****
================================================================================

                       ****************************
                       * Single Point Calculation *
                       ****************************

--------------------------------
INTERNAL COORDINATES (ANGSTROEM)
--------------------------------
 C      0   0   0   0.000000     0.000     0.000
 O      1   0   0   1.410156     0.000     0.000
 N      2   1   0   1.378897   109.319     0.000
 C      3   2   1   1.267042   111.956   179.585
 C      4   3   2   1.486459   120.362   179.712
 C      5   4   3   1.523984   112.458   242.845
 N      6   5   4   1.453468   110.096   185.336
 H      1   2   3   1.090057   105.840   180.013
 H      1   2   3   1.093908   111.148    60.994
 H      1   2   3   1.093823   111.133   299.032
 H      4   3   2   1.093137   120.090     0.283
 H      5   4   3   1.095855   109.733   122.644
 H      5   4   3   1.093607   108.668     5.215
 H      6   5   4   1.100854   108.665    59.640
 H      6   5   4   1.095133   109.181   303.640
 H      7   6   5   1.013283   110.330   295.326
 H      7   6   5   1.012069   110.679   177.313

---------------------------
INTERNAL COORDINATES (A.U.)
---------------------------
 C      0   0   0   0.000000     0.000     0.000
 O      1   0   0   2.664809     0.000     0.000
 N      2   1   0   2.605737   109.319     0.000
 C      3   2   1   2.394363   111.956   179.585
 C      4   3   2   2.809000   120.362   179.712
 C      5   4   3   2.879913   112.458   242.845
 N      6   5   4   2.746657   110.096   185.336
 H      1   2   3   2.059910   105.840   180.013
 H      1   2   3   2.067186   111.148    60.994
 H      1   2   3   2.067025   111.133   299.032
 H      4   3   2   2.065730   120.090     0.283
 H      5   4   3   2.070866   109.733   122.644
 H      5   4   3   2.066618   108.668     5.215
 H      6   5   4   2.080312   108.665    59.640
 H      6   5   4   2.069501   109.181   303.640
 H      7   6   5   1.914827   110.330   295.326
 H      7   6   5   1.912534   110.679   177.313



           ************************************************************
           *        Program running with 2 parallel MPI-processes     *
           *              working on a common directory               *
           ************************************************************
------------------------------------------------------------------------------
                           ORCA GTO INTEGRAL CALCULATION
                           -- RI-GTO INTEGRALS CHOSEN --
------------------------------------------------------------------------------

                         BASIS SET STATISTICS AND STARTUP INFO

Gaussian basis set:
 # of primitive gaussian shells          ...  134
 # of primitive gaussian functions       ...  238
 # of contracted shells                  ...   72
 # of contracted basis functions         ...  148
 Highest angular momentum                ...    2
 Maximum contraction depth               ...    5
Auxiliary gaussian basis set:
 # of primitive gaussian shells          ...  248
 # of primitive gaussian functions       ...  650
 # of contracted shells                  ...  155
 # of contracted aux-basis functions     ...  453
 Highest angular momentum                ...    4
 Maximum contraction depth               ...    7
Ratio of auxiliary to basis functions    ...  3.06
Integral package used                  ... LIBINT
 One Electron integrals                  ... done
 Ordering auxiliary basis shells         ... done
 Integral threshhold             Thresh  ...  1.000e-10
 Primitive cut-off               TCut    ...  1.000e-11
 Pre-screening matrix                    ... done
 Shell pair data                         ... 
 Ordering of the shell pairs             ... done (   0.000 sec) 2329 of 2628 pairs
 Determination of significant pairs      ... done (   0.000 sec)
 Creation of shell pair data             ... done (   0.000 sec)
 Storage of shell pair data              ... done (   0.000 sec)
 Shell pair data done in (   0.001 sec)
 Computing two index integrals           ... done
 Cholesky decomposition of the V-matrix  ... done


Timings:
 Total evaluation time                   ...   0.161 sec (  0.003 min)
 One electron matrix time                ...   0.018 sec (  0.000 min) = 11.4%
 Schwartz matrix evaluation time         ...   0.076 sec (  0.001 min) = 47.4%
 Two index repulsion integral time       ...   0.004 sec (  0.000 min) =  2.5%
 Cholesky decomposition of V             ...   0.004 sec (  0.000 min) =  2.3%
 Three index repulsion integral time     ...   0.000 sec (  0.000 min) =  0.0%

           ************************************************************
           *              Shut down parallel processing               *
           ************************************************************


           ************************************************************
           *        Program running with 2 parallel MPI-processes     *
           *              working on a common directory               *
           ************************************************************
-------------------------------------------------------------------------------
                                 ORCA SCF
-------------------------------------------------------------------------------

------------
SCF SETTINGS
------------
Hamiltonian:
 Density Functional     Method          .... DFT(GTOs)
 Exchange Functional    Exchange        .... PBE
   PBE kappa parameter  XKappa          ....  0.804000
 Correlation Functional Correlation     .... PBE
 LDA part of GGA corr.  LDAOpt          .... PW91-LDA
 Gradients option       PostSCFGGA      .... off
   NL short-range parameter             ....  6.400000
 RI-approximation to the Coulomb term is turned on
   Number of auxiliary basis functions  .... 453


General Settings:
 Integral files         IntName         .... 6023
 Hartree-Fock type      HFTyp           .... RHF
 Total Charge           Charge          ....    0
 Multiplicity           Mult            ....    1
 Number of Electrons    NEL             ....   56
 Basis Dimension        Dim             ....  148
 Nuclear Repulsion      ENuc            ....    298.9667177287 Eh

Convergence Acceleration:
 DIIS                   CNVDIIS         .... on
   Start iteration      DIISMaxIt       ....    12
   Startup error        DIISStart       ....  0.200000
   # of expansion vecs  DIISMaxEq       ....     5
   Bias factor          DIISBfac        ....   1.050
   Max. coefficient     DIISMaxC        ....  10.000
 Newton-Raphson         CNVNR           .... off
 SOSCF                  CNVSOSCF        .... on
   Start iteration      SOSCFMaxIt      ....   150
   Startup grad/error   SOSCFStart      ....  0.003300
 Level Shifting         CNVShift        .... on
   Level shift para.    LevelShift      ....    0.2500
   Turn off err/grad.   ShiftErr        ....    0.0010
 Zerner damping         CNVZerner       .... off
 Static damping         CNVDamp         .... on
   Fraction old density DampFac         ....    0.7000
   Max. Damping (<1)    DampMax         ....    0.9800
   Min. Damping (>=0)   DampMin         ....    0.0000
   Turn off err/grad.   DampErr         ....    0.1000
 Fernandez-Rico         CNVRico         .... off

SCF Procedure:
 Maximum # iterations   MaxIter         ....   125
 SCF integral mode      SCFMode         .... Direct
   Integral package                     .... LIBINT
 Reset frequeny         DirectResetFreq ....    20
 Integral Threshold     Thresh          ....  1.000e-10 Eh
 Primitive CutOff       TCut            ....  1.000e-11 Eh

Convergence Tolerance:
 Convergence Check Mode ConvCheckMode   .... Total+1el-Energy
 Energy Change          TolE            ....  1.000e-06 Eh
 1-El. energy change                    ....  1.000e-03 Eh
 Orbital Gradient       TolG            ....  5.000e-05
 Orbital Rotation angle TolX            ....  5.000e-05
 DIIS Error             TolErr          ....  1.000e-06


Diagonalization of the overlap matrix:
Smallest eigenvalue                        ... 1.705e-03
Time for diagonalization                   ...    0.012 sec
Threshold for overlap eigenvalues          ... 1.000e-08
Number of eigenvalues below threshold      ... 0
Time for construction of square roots      ...    0.003 sec
Total time needed                          ...    0.015 sec

-------------------
DFT GRID GENERATION
-------------------

General Integration Accuracy     IntAcc      ...  4.340
Radial Grid Type                 RadialGrid  ... Gauss-Chebyshev
Angular Grid (max. acc.)         AngularGrid ... Lebedev-110
Angular grid pruning method      GridPruning ... 3 (G Style)
Weight generation scheme         WeightScheme... Becke
Basis function cutoff            BFCut       ...    1.0000e-10
Integration weight cutoff        WCut        ...    1.0000e-14
Grids for H and He will be reduced by one unit

# of grid points (after initial pruning)     ...  19684 (   0.0 sec)
# of grid points (after weights+screening)   ...  18430 (   0.1 sec)
nearest neighbour list constructed           ...    0.0 sec
Grid point re-assignment to atoms done       ...    0.0 sec
Grid point division into batches done        ...    0.0 sec
Reduced shell lists constructed in    0.1 sec

Total number of grid points                  ...    18430
Total number of batches                      ...      297
Average number of points per batch           ...       62
Average number of grid points per atom       ...     1084
Average number of shells per batch           ...    48.52 (67.39%)
Average number of basis functions per batch  ...    96.41 (65.14%)
Average number of large shells per batch     ...    37.76 (77.82%)
Average number of large basis fcns per batch ...    75.55 (78.36%)
Maximum spatial batch extension              ...  21.82, 15.96, 19.15 au
Average spatial batch extension              ...   1.48,  1.38,  1.46 au

Time for grid setup =    0.149 sec

------------------------------
INITIAL GUESS: MODEL POTENTIAL
------------------------------
Loading Hartree-Fock densities                     ... done
Calculating cut-offs                               ... done
Setting up the integral package                    ... done
Initializing the effective Hamiltonian             ... done
Starting the Coulomb interaction                   ... done (   0.0 sec)
Reading the grid                                   ... done
Mapping shells                                     ... done
Starting the XC term evaluation                    ... done (   0.1 sec)
  promolecular density results
     # of electrons  =     55.992493189
     EX              =    -44.612151484
     EC              =     -1.840093491
     EX+EC           =    -46.452244975
Transforming the Hamiltonian                       ... done (   0.0 sec)
Diagonalizing the Hamiltonian                      ... done (   0.0 sec)
Back transforming the eigenvectors                 ... done (   0.0 sec)
Now organizing SCF variables                       ... done
                      ------------------
                      INITIAL GUESS DONE (   0.4 sec)
                      ------------------
--------------
SCF ITERATIONS
--------------
ITER       Energy         Delta-E        Max-DP      RMS-DP      [F,P]     Damp
               ***  Starting incremental Fock matrix formation  ***
  0   -342.2507023610   0.000000000000 0.08857309  0.00252082  0.2227862 0.7000
  1   -342.3318370221  -0.081134661112 0.04850848  0.00181977  0.0887135 0.7000
                               ***Turning on DIIS***
  2   -342.3608754009  -0.029038378832 0.06724643  0.00293530  0.0193723 0.0000
  3   -342.4045682488  -0.043692847863 0.03684709  0.00123387  0.0573796 0.0000
  4   -342.4169116325  -0.012343383719 0.00923834  0.00037414  0.0080502 0.0000
  5   -342.4175151154  -0.000603482876 0.00385897  0.00014530  0.0038242 0.0000
                      *** Initiating the SOSCF procedure ***
                           *** Shutting down DIIS ***
                      *** Re-Reading the Fockian *** 
                      *** Removing any level shift *** 
ITER      Energy       Delta-E        Grad      Rot      Max-DP    RMS-DP
  6   -342.41756861  -0.0000534987  0.000207  0.000207  0.002242  0.000084
               *** Restarting incremental Fock matrix formation ***
  7   -342.41757157  -0.0000029590  0.000295  0.001709  0.001325  0.000046
  8   -342.41756376   0.0000078109  0.000958  0.001558  0.000976  0.000033
  9   -342.41757298  -0.0000092228  0.000138  0.000491  0.000574  0.000018
 10   -342.41757206   0.0000009263  0.000222  0.000277  0.000367  0.000012
 11   -342.41757327  -0.0000012139  0.000034  0.000109  0.000148  0.000004
 12   -342.41757320   0.0000000712  0.000069  0.000074  0.000099  0.000003
                 **** Energy Check signals convergence ****
              ***Rediagonalizing the Fockian in SOSCF/NRSCF***

               *****************************************************
               *                     SUCCESS                       *
               *           SCF CONVERGED AFTER  13 CYCLES          *
               *****************************************************

Setting up the final grid:

General Integration Accuracy     IntAcc      ...  4.670
Radial Grid Type                 RadialGrid  ... Gauss-Chebyshev
Angular Grid (max. acc.)         AngularGrid ... Lebedev-302
Angular grid pruning method      GridPruning ... 3 (G Style)
Weight generation scheme         WeightScheme... Becke
Basis function cutoff            BFCut       ...    1.0000e-10
Integration weight cutoff        WCut        ...    1.0000e-14
Grids for H and He will be reduced by one unit

# of grid points (after initial pruning)     ...  77424 (   0.0 sec)
# of grid points (after weights+screening)   ...  71692 (   0.1 sec)
nearest neighbour list constructed           ...    0.0 sec
Grid point re-assignment to atoms done       ...    0.0 sec
Grid point division into batches done        ...    0.2 sec
Reduced shell lists constructed in    0.4 sec

Total number of grid points                  ...    71692
Total number of batches                      ...     1131
Average number of points per batch           ...       63
Average number of grid points per atom       ...     4217
Average number of shells per batch           ...    44.13 (61.29%)
Average number of basis functions per batch  ...    87.22 (58.93%)
Average number of large shells per batch     ...    33.75 (76.48%)
Average number of large basis fcns per batch ...    67.00 (76.82%)
Maximum spatial batch extension              ...  17.72, 18.86, 16.97 au
Average spatial batch extension              ...   1.03,  1.03,  1.02 au

Final grid set up in    0.6 sec
Final integration                            ... done (   0.4 sec)
Change in XC energy                          ...    -0.000054146
Integrated number of electrons               ...    55.999975715
Previous integrated no of electrons          ...    56.000024292

----------------
TOTAL SCF ENERGY
----------------

Total Energy       :         -342.41762744 Eh           -9317.65734 eV

Components:
Nuclear Repulsion  :          298.96671773 Eh            8135.29798 eV
Electronic Energy  :         -641.38434517 Eh          -17452.95532 eV

One Electron Energy:        -1056.72715373 Eh          -28755.00773 eV
Two Electron Energy:          415.34280856 Eh           11302.05241 eV

Virial components:
Potential Energy   :         -681.92849481 Eh          -18556.21772 eV
Kinetic Energy     :          339.51086737 Eh            9238.56038 eV
Virial Ratio       :            2.00856161


DFT components:
N(Alpha)           :       27.999987857410 electrons
N(Beta)            :       27.999987857410 electrons
N(Total)           :       55.999975714820 electrons
E(X)               :      -45.517607513234 Eh       
E(C)               :       -1.857083844611 Eh       
E(XC)              :      -47.374691357844 Eh       

---------------
SCF CONVERGENCE
---------------

  Last Energy change         ...   -9.0969e-08  Tolerance :   1.0000e-06
  Last MAX-Density change    ...    8.7101e-06  Tolerance :   1.0000e-05
  Last RMS-Density change    ...    2.6790e-07  Tolerance :   1.0000e-06
  Last Orbital Gradient      ...    1.2875e-06  Tolerance :   5.0000e-05
  Last Orbital Rotation      ...    2.1661e-06  Tolerance :   5.0000e-05

             **** THE GBW FILE WAS UPDATED (6023.gbw) ****
             **** DENSITY FILE WAS UPDATED (6023.scfp.tmp) ****
             **** ENERGY FILE WAS UPDATED (6023.en.tmp) ****

                    ********************************
                    * MULLIKEN POPULATION ANALYSIS *
                    ********************************

-----------------------
MULLIKEN ATOMIC CHARGES
-----------------------
   0 C :    0.160410
   1 O :   -0.280379
   2 N :   -0.006092
   3 C :   -0.062629
   4 C :    0.057726
   5 C :    0.040190
   6 N :   -0.211439
   7 H :    0.028198
   8 H :    0.018024
   9 H :    0.021343
  10 H :    0.001682
  11 H :    0.031470
  12 H :    0.008551
  13 H :    0.006939
  14 H :    0.006340
  15 H :    0.089157
  16 H :    0.090509
Sum of atomic charges:   -0.0000000

--------------------------------
MULLIKEN REDUCED ORBITAL CHARGES
--------------------------------
  0 C s       :     3.003450  s :     3.003450
      pz      :     0.884841  p :     2.787049
      px      :     0.893590
      py      :     1.008619
      dz2     :     0.011202  d :     0.049091
      dxz     :     0.013725
      dyz     :     0.007995
      dx2y2   :     0.005678
      dxy     :     0.010492
  1 O s       :     3.808389  s :     3.808389
      pz      :     1.546829  p :     4.450614
      px      :     1.487843
      py      :     1.415942
      dz2     :     0.003543  d :     0.021376
      dxz     :     0.003454
      dyz     :     0.004346
      dx2y2   :     0.004689
      dxy     :     0.005344
  2 N s       :     3.601532  s :     3.601532
      pz      :     1.134004  p :     3.360144
      px      :     1.063783
      py      :     1.162357
      dz2     :     0.009681  d :     0.044416
      dxz     :     0.005864
      dyz     :     0.008808
      dx2y2   :     0.009371
      dxy     :     0.010693
  3 C s       :     3.192220  s :     3.192220
      pz      :     0.941467  p :     2.822378
      px      :     0.923502
      py      :     0.957409
      dz2     :     0.011620  d :     0.048031
      dxz     :     0.008550
      dyz     :     0.008619
      dx2y2   :     0.010869
      dxy     :     0.008374
  4 C s       :     2.965924  s :     2.965924
      pz      :     1.000405  p :     2.944250
      px      :     0.952862
      py      :     0.990983
      dz2     :     0.008405  d :     0.032100
      dxz     :     0.005096
      dyz     :     0.004087
      dx2y2   :     0.007105
      dxy     :     0.007407
  5 C s       :     3.000367  s :     3.000367
      pz      :     0.975745  p :     2.909383
      px      :     0.960689
      py      :     0.972949
      dz2     :     0.014768  d :     0.050060
      dxz     :     0.007558
      dyz     :     0.007355
      dx2y2   :     0.010424
      dxy     :     0.009955
  6 N s       :     3.428499  s :     3.428499
      pz      :     1.652943  p :     3.764323
      px      :     1.066799
      py      :     1.044580
      dz2     :     0.002672  d :     0.018618
      dxz     :     0.003083
      dyz     :     0.005196
      dx2y2   :     0.006333
      dxy     :     0.001333
  7 H s       :     0.949618  s :     0.949618
      pz      :     0.004823  p :     0.022184
      px      :     0.005943
      py      :     0.011418
  8 H s       :     0.959358  s :     0.959358
      pz      :     0.009804  p :     0.022617
      px      :     0.005571
      py      :     0.007243
  9 H s       :     0.955976  s :     0.955976
      pz      :     0.005105  p :     0.022681
      px      :     0.008528
      py      :     0.009048
 10 H s       :     0.976804  s :     0.976804
      pz      :     0.004250  p :     0.021514
      px      :     0.003596
      py      :     0.013668
 11 H s       :     0.945475  s :     0.945475
      pz      :     0.013663  p :     0.023055
      px      :     0.004599
      py      :     0.004793
 12 H s       :     0.968537  s :     0.968537
      pz      :     0.006193  p :     0.022913
      px      :     0.005434
      py      :     0.011286
 13 H s       :     0.972036  s :     0.972036
      pz      :     0.013161  p :     0.021025
      px      :     0.003880
      py      :     0.003984
 14 H s       :     0.972406  s :     0.972406
      pz      :     0.005728  p :     0.021254
      px      :     0.004531
      py      :     0.010995
 15 H s       :     0.864431  s :     0.864431
      pz      :     0.014751  p :     0.046412
      px      :     0.011129
      py      :     0.020531
 16 H s       :     0.863170  s :     0.863170
      pz      :     0.014466  p :     0.046321
      px      :     0.022064
      py      :     0.009792


                     *******************************
                     * LOEWDIN POPULATION ANALYSIS *
                     *******************************

----------------------
LOEWDIN ATOMIC CHARGES
----------------------
   0 C :    0.041106
   1 O :   -0.092913
   2 N :   -0.006525
   3 C :   -0.026420
   4 C :   -0.054122
   5 C :    0.009151
   6 N :   -0.113252
   7 H :    0.022960
   8 H :    0.010501
   9 H :    0.011293
  10 H :    0.004427
  11 H :    0.038301
  12 H :    0.029098
  13 H :    0.002317
  14 H :    0.019185
  15 H :    0.050837
  16 H :    0.054056

-------------------------------
LOEWDIN REDUCED ORBITAL CHARGES
-------------------------------
  0 C s       :     2.857201  s :     2.857201
      pz      :     0.952133  p :     2.982817
      px      :     0.959311
      py      :     1.071373
      dz2     :     0.025850  d :     0.118876
      dxz     :     0.032339
      dyz     :     0.020461
      dx2y2   :     0.012177
      dxy     :     0.028049
  1 O s       :     3.504934  s :     3.504934
      pz      :     1.559160  p :     4.548833
      px      :     1.504072
      py      :     1.485601
      dz2     :     0.006298  d :     0.039146
      dxz     :     0.007061
      dyz     :     0.007357
      dx2y2   :     0.008509
      dxy     :     0.009921
  2 N s       :     3.310109  s :     3.310109
      pz      :     1.191065  p :     3.606457
      px      :     1.124418
      py      :     1.290974
      dz2     :     0.017503  d :     0.089960
      dxz     :     0.015585
      dyz     :     0.017310
      dx2y2   :     0.017735
      dxy     :     0.021827
  3 C s       :     2.888298  s :     2.888298
      pz      :     0.986428  p :     3.014301
      px      :     0.981497
      py      :     1.046377
      dz2     :     0.023614  d :     0.123821
      dxz     :     0.024593
      dyz     :     0.024918
      dx2y2   :     0.026674
      dxy     :     0.024022
  4 C s       :     2.840510  s :     2.840510
      pz      :     1.057388  p :     3.125900
      px      :     1.019090
      py      :     1.049422
      dz2     :     0.024115  d :     0.087712
      dxz     :     0.011354
      dyz     :     0.011348
      dx2y2   :     0.021519
      dxy     :     0.019376
  5 C s       :     2.837521  s :     2.837521
      pz      :     1.038803  p :     3.034750
      px      :     0.993192
      py      :     1.002755
      dz2     :     0.037949  d :     0.118578
      dxz     :     0.015809
      dyz     :     0.017794
      dx2y2   :     0.025361
      dxy     :     0.021665
  6 N s       :     3.131566  s :     3.131566
      pz      :     1.656244  p :     3.938453
      px      :     1.151650
      py      :     1.130559
      dz2     :     0.004472  d :     0.043233
      dxz     :     0.005091
      dyz     :     0.010227
      dx2y2   :     0.017410
      dxy     :     0.006033
  7 H s       :     0.912666  s :     0.912666
      pz      :     0.013447  p :     0.064374
      px      :     0.017026
      py      :     0.033902
  8 H s       :     0.923159  s :     0.923159
      pz      :     0.031413  p :     0.066340
      px      :     0.016105
      py      :     0.018822
  9 H s       :     0.922275  s :     0.922275
      pz      :     0.014420  p :     0.066432
      px      :     0.026660
      py      :     0.025351
 10 H s       :     0.924234  s :     0.924234
      pz      :     0.015062  p :     0.071339
      px      :     0.012872
      py      :     0.043405
 11 H s       :     0.893299  s :     0.893299
      pz      :     0.041545  p :     0.068400
      px      :     0.013909
      py      :     0.012945
 12 H s       :     0.903104  s :     0.903104
      pz      :     0.016219  p :     0.067798
      px      :     0.016254
      py      :     0.035325
 13 H s       :     0.930321  s :     0.930321
      pz      :     0.041788  p :     0.067361
      px      :     0.013254
      py      :     0.012320
 14 H s       :     0.915996  s :     0.915996
      pz      :     0.015187  p :     0.064818
      px      :     0.015167
      py      :     0.034465
 15 H s       :     0.826457  s :     0.826457
      pz      :     0.045080  p :     0.122706
      px      :     0.021812
      py      :     0.055814
 16 H s       :     0.822833  s :     0.822833
      pz      :     0.041986  p :     0.123111
      px      :     0.061200
      py      :     0.019926


                      *****************************
                      * MAYER POPULATION ANALYSIS *
                      *****************************

  NA   - Mulliken gross atomic population
  ZA   - Total nuclear charge
  QA   - Mulliken gross atomic charge
  VA   - Mayer's total valence
  BVA  - Mayer's bonded valence
  FA   - Mayer's free valence

  ATOM       NA         ZA         QA         VA         BVA        FA
  0 C      5.8396     6.0000     0.1604     3.9155     3.9155    -0.0000
  1 O      8.2804     8.0000    -0.2804     2.1386     2.1386     0.0000
  2 N      7.0061     7.0000    -0.0061     2.9819     2.9819    -0.0000
  3 C      6.0626     6.0000    -0.0626     4.0587     4.0587    -0.0000
  4 C      5.9423     6.0000     0.0577     3.9346     3.9346     0.0000
  5 C      5.9598     6.0000     0.0402     4.0836     4.0836     0.0000
  6 N      7.2114     7.0000    -0.2114     3.0697     3.0697     0.0000
  7 H      0.9718     1.0000     0.0282     0.9933     0.9933    -0.0000
  8 H      0.9820     1.0000     0.0180     0.9981     0.9981     0.0000
  9 H      0.9787     1.0000     0.0213     0.9982     0.9982    -0.0000
 10 H      0.9983     1.0000     0.0017     1.0141     1.0141    -0.0000
 11 H      0.9685     1.0000     0.0315     0.9949     0.9949     0.0000
 12 H      0.9914     1.0000     0.0086     1.0153     1.0153     0.0000
 13 H      0.9931     1.0000     0.0069     0.9697     0.9697     0.0000
 14 H      0.9937     1.0000     0.0063     0.9791     0.9791     0.0000
 15 H      0.9108     1.0000     0.0892     0.9983     0.9983     0.0000
 16 H      0.9095     1.0000     0.0905     0.9977     0.9977    -0.0000

  Mayer bond orders larger than 0.1
B(  0-C ,  1-O ) :   0.9782 B(  0-C ,  7-H ) :   0.9729 B(  0-C ,  8-H ) :   0.9670 
B(  0-C ,  9-H ) :   0.9676 B(  1-O ,  2-N ) :   0.9497 B(  1-O ,  3-C ) :   0.1067 
B(  2-N ,  3-C ) :   1.8937 B(  3-C ,  4-C ) :   1.0369 B(  3-C , 10-H ) :   0.9375 
B(  4-C ,  5-C ) :   1.0757 B(  4-C , 11-H ) :   0.9094 B(  4-C , 12-H ) :   0.9220 
B(  5-C ,  6-N ) :   1.0847 B(  5-C , 13-H ) :   0.9337 B(  5-C , 14-H ) :   0.9376 
B(  6-N , 15-H ) :   0.9683 B(  6-N , 16-H ) :   0.9652 


 *********************************** NBO 6.0 ***********************************
             N A T U R A L   A T O M I C   O R B I T A L   A N D
          N A T U R A L   B O N D   O R B I T A L   A N A L Y S I S
 ***************************** Kiya KiyaLu (100703) ****************************
  (c) Copyright 1996-2015 Board of Regents of the University of Wisconsin System
      on behalf of the Theoretical Chemistry Institute.  All rights reserved.

          Cite this program as:

          NBO 6.0.  E. D. Glendening, J. K. Badenhoop, A. E. Reed,
          J. E. Carpenter, J. A. Bohmann, C. M. Morales, C. R. Landis,
          and F. Weinhold (Theoretical Chemistry Institute, University
          of Wisconsin, Madison, WI, 2013); http://nbo6.chem.wisc.edu/

       /NPA    / : Natural Population Analysis
       /NBO    / : Natural Bond Orbital Analysis
       /AONBO  / : Write the AO to NBO transformation to lfn77
       /FILE   / : Set to 6023

 Filename set to 6023

 Job title:  *** NBO job generated by orca_scf

 Warning: MOs are non-orthogonal; program will continue

 Warning: -1456.68883 electrons reside outside the linearly independent MO space


 NATURAL POPULATIONS:  Natural atomic orbital occupancies

  NAO Atom No lang   Type(AO)    Occupancy      Energy
 -------------------------------------------------------
   1    C  1  s      Cor( 1s)     1.99927      -9.83541
   2    C  1  s      Val( 2s)     1.08900      -0.22977
   3    C  1  s      Ryd( 3s)     0.00199       0.72772
   4    C  1  px     Val( 2p)     0.99337      -0.07218
   5    C  1  px     Ryd( 3p)     0.00223       0.51335
   6    C  1  py     Val( 2p)     1.18791      -0.06953
   7    C  1  py     Ryd( 3p)     0.00283       0.56646
   8    C  1  pz     Val( 2p)     0.98069      -0.07109
   9    C  1  pz     Ryd( 3p)     0.00221       0.49603
  10    C  1  dxy    Ryd( 3d)     0.00099       2.28903
  11    C  1  dxz    Ryd( 3d)     0.00146       2.23196
  12    C  1  dyz    Ryd( 3d)     0.00076       2.18995
  13    C  1  dx2y2  Ryd( 3d)     0.00073       2.05532
  14    C  1  dz2    Ryd( 3d)     0.00132       2.06127

  15    O  2  s      Cor( 1s)     1.99971     -18.61114
  16    O  2  s      Val( 2s)     1.63932      -0.78434
  17    O  2  s      Ryd( 3s)     0.00216       1.37492
  18    O  2  px     Val( 2p)     1.57522      -0.26321
  19    O  2  px     Ryd( 3p)     0.00167       1.17898
  20    O  2  py     Val( 2p)     1.52597      -0.26850
  21    O  2  py     Ryd( 3p)     0.00141       1.06646
  22    O  2  pz     Val( 2p)     1.63572      -0.26527
  23    O  2  pz     Ryd( 3p)     0.00170       1.17384
  24    O  2  dxy    Ryd( 3d)     0.00141       2.85318
  25    O  2  dxz    Ryd( 3d)     0.00082       2.89024
  26    O  2  dyz    Ryd( 3d)     0.00128       2.76054
  27    O  2  dx2y2  Ryd( 3d)     0.00118       2.75121
  28    O  2  dz2    Ryd( 3d)     0.00076       2.69864

  29    N  3  s      Cor( 1s)     1.99918     -13.86448
  30    N  3  s      Val( 2s)     1.44079      -0.48234
  31    N  3  s      Ryd( 3s)     0.00764       0.99810
  32    N  3  px     Val( 2p)     1.17008      -0.17854
  33    N  3  px     Ryd( 3p)     0.00241       0.93196
  34    N  3  py     Val( 2p)     1.28843      -0.16080
  35    N  3  py     Ryd( 3p)     0.00516       0.90635
  36    N  3  pz     Val( 2p)     1.25169      -0.18606
  37    N  3  pz     Ryd( 3p)     0.00253       0.89681
  38    N  3  dxy    Ryd( 3d)     0.00208       2.39740
  39    N  3  dxz    Ryd( 3d)     0.00130       2.64572
  40    N  3  dyz    Ryd( 3d)     0.00191       2.33592
  41    N  3  dx2y2  Ryd( 3d)     0.00200       2.36666
  42    N  3  dz2    Ryd( 3d)     0.00196       2.30899

  43    C  4  s      Cor( 1s)     1.99920      -9.79654
  44    C  4  s      Val( 2s)     0.91719      -0.14622
  45    C  4  s      Ryd( 3s)     0.00814       0.48837
  46    C  4  px     Val( 2p)     0.93230      -0.06343
  47    C  4  px     Ryd( 3p)     0.00723       0.56909
  48    C  4  py     Val( 2p)     1.13340      -0.04170
  49    C  4  py     Ryd( 3p)     0.00442       0.79801
  50    C  4  pz     Val( 2p)     0.93204      -0.06376
  51    C  4  pz     Ryd( 3p)     0.00557       0.53892
  52    C  4  dxy    Ryd( 3d)     0.00077       2.11354
  53    C  4  dxz    Ryd( 3d)     0.00085       2.20717
  54    C  4  dyz    Ryd( 3d)     0.00073       2.13068
  55    C  4  dx2y2  Ryd( 3d)     0.00104       2.21287
  56    C  4  dz2    Ryd( 3d)     0.00142       2.03237

  57    C  5  s      Cor( 1s)     1.99906      -9.77472
  58    C  5  s      Val( 2s)     1.02908      -0.19822
  59    C  5  s      Ryd( 3s)     0.00125       0.86604
  60    C  5  px     Val( 2p)     1.06982      -0.07586
  61    C  5  px     Ryd( 3p)     0.00251       0.56670
  62    C  5  py     Val( 2p)     1.17076      -0.07349
  63    C  5  py     Ryd( 3p)     0.00296       0.63175
  64    C  5  pz     Val( 2p)     1.21464      -0.07120
  65    C  5  pz     Ryd( 3p)     0.00375       0.71648
  66    C  5  dxy    Ryd( 3d)     0.00063       2.15624
  67    C  5  dxz    Ryd( 3d)     0.00045       2.07276
  68    C  5  dyz    Ryd( 3d)     0.00043       2.13693
  69    C  5  dx2y2  Ryd( 3d)     0.00056       2.21564
  70    C  5  dz2    Ryd( 3d)     0.00073       2.40218

  71    C  6  s      Cor( 1s)     1.99916      -9.80455
  72    C  6  s      Val( 2s)     0.99697      -0.19204
  73    C  6  s      Ryd( 3s)     0.00209       0.78863
  74    C  6  px     Val( 2p)     0.99573      -0.07026
  75    C  6  px     Ryd( 3p)     0.00162       0.50634
  76    C  6  py     Val( 2p)     1.06512      -0.06694
  77    C  6  py     Ryd( 3p)     0.00156       0.56348
  78    C  6  pz     Val( 2p)     1.14268      -0.05940
  79    C  6  pz     Ryd( 3p)     0.00279       0.67240
  80    C  6  dxy    Ryd( 3d)     0.00086       2.11860
  81    C  6  dxz    Ryd( 3d)     0.00075       2.07737
  82    C  6  dyz    Ryd( 3d)     0.00081       2.13742
  83    C  6  dx2y2  Ryd( 3d)     0.00092       2.23426
  84    C  6  dz2    Ryd( 3d)     0.00127       2.37713

  85    N  7  s      Cor( 1s)     1.99946     -13.82868
  86    N  7  s      Val( 2s)     1.41129      -0.48514
  87    N  7  s      Ryd( 3s)     0.00091       1.07235
  88    N  7  px     Val( 2p)     1.34829      -0.15651
  89    N  7  px     Ryd( 3p)     0.00294       0.93465
  90    N  7  py     Val( 2p)     1.30729      -0.15776
  91    N  7  py     Ryd( 3p)     0.00234       0.89570
  92    N  7  pz     Val( 2p)     1.78678      -0.17784
  93    N  7  pz     Ryd( 3p)     0.00479       0.82184
  94    N  7  dxy    Ryd( 3d)     0.00010       2.52785
  95    N  7  dxz    Ryd( 3d)     0.00107       2.43014
  96    N  7  dyz    Ryd( 3d)     0.00130       2.54470
  97    N  7  dx2y2  Ryd( 3d)     0.00077       2.77443
  98    N  7  dz2    Ryd( 3d)     0.00145       2.44733

  99    H  8  s      Val( 1s)     0.79408       0.05614
 100    H  8  s      Ryd( 2s)     0.00124       0.30201
 101    H  8  px     Ryd( 2p)     0.00027       1.78343
 102    H  8  py     Ryd( 2p)     0.00066       2.11152
 103    H  8  pz     Ryd( 2p)     0.00019       1.70707

 104    H  9  s      Val( 1s)     0.80791       0.05246
 105    H  9  s      Ryd( 2s)     0.00333       0.32073
 106    H  9  px     Ryd( 2p)     0.00033       1.76790
 107    H  9  py     Ryd( 2p)     0.00032       1.83164
 108    H  9  pz     Ryd( 2p)     0.00049       2.07238

 109    H 10  s      Val( 1s)     0.80710       0.05318
 110    H 10  s      Ryd( 2s)     0.00329       0.32163
 111    H 10  px     Ryd( 2p)     0.00039       1.98838
 112    H 10  py     Ryd( 2p)     0.00046       1.95339
 113    H 10  pz     Ryd( 2p)     0.00028       1.73668

 114    H 11  s      Val( 1s)     0.80641       0.04927
 115    H 11  s      Ryd( 2s)     0.00616       0.32539
 116    H 11  px     Ryd( 2p)     0.00011       1.76146
 117    H 11  py     Ryd( 2p)     0.00092       2.23705
 118    H 11  pz     Ryd( 2p)     0.00016       1.76521

 119    H 12  s      Val( 1s)     0.74975       0.07532
 120    H 12  s      Ryd( 2s)     0.00472       0.34180
 121    H 12  px     Ryd( 2p)     0.00011       1.76348
 122    H 12  py     Ryd( 2p)     0.00011       1.73472
 123    H 12  pz     Ryd( 2p)     0.00093       2.26176

 124    H 13  s      Val( 1s)     0.76069       0.07247
 125    H 13  s      Ryd( 2s)     0.00468       0.34934
 126    H 13  px     Ryd( 2p)     0.00021       1.79014
 127    H 13  py     Ryd( 2p)     0.00069       2.16242
 128    H 13  pz     Ryd( 2p)     0.00021       1.80712

 129    H 14  s      Val( 1s)     0.80771       0.06504
 130    H 14  s      Ryd( 2s)     0.00383       0.33642
 131    H 14  px     Ryd( 2p)     0.00015       1.71125
 132    H 14  py     Ryd( 2p)     0.00012       1.73209
 133    H 14  pz     Ryd( 2p)     0.00092       2.25068

 134    H 15  s      Val( 1s)     0.78717       0.06570
 135    H 15  s      Ryd( 2s)     0.00263       0.33004
 136    H 15  px     Ryd( 2p)     0.00018       1.75110
 137    H 15  py     Ryd( 2p)     0.00075       2.17662
 138    H 15  pz     Ryd( 2p)     0.00021       1.80745

 139    H 16  s      Val( 1s)     0.64274       0.07972
 140    H 16  s      Ryd( 2s)     0.00278       0.38242
 141    H 16  px     Ryd( 2p)     0.00052       1.76970
 142    H 16  py     Ryd( 2p)     0.00116       2.27588
 143    H 16  pz     Ryd( 2p)     0.00086       1.75157

 144    H 17  s      Val( 1s)     0.63490       0.08335
 145    H 17  s      Ryd( 2s)     0.00239       0.37038
 146    H 17  px     Ryd( 2p)     0.00126       2.36359
 147    H 17  py     Ryd( 2p)     0.00043       1.75673
 148    H 17  pz     Ryd( 2p)     0.00085       1.69538


 Summary of Natural Population Analysis:

                                     Natural Population
             Natural    ---------------------------------------------
  Atom No    Charge        Core      Valence    Rydberg      Total
 --------------------------------------------------------------------
    C  1   -0.26476      1.99927     4.25097    0.01452     6.26476
    O  2   -0.38832      1.99971     6.37622    0.01239     8.38832
    N  3   -0.17715      1.99918     5.15099    0.02698     7.17715
    C  4    0.05569      1.99920     3.91493    0.03018     5.94431
    C  5   -0.49664      1.99906     4.48430    0.01328     6.49664
    C  6   -0.21231      1.99916     4.20050    0.01265     6.21231
    N  7   -0.86879      1.99946     5.85365    0.01567     7.86879
    H  8    0.20357      0.00000     0.79408    0.00235     0.79643
    H  9    0.18763      0.00000     0.80791    0.00446     0.81237
    H 10    0.18849      0.00000     0.80710    0.00442     0.81151
    H 11    0.18625      0.00000     0.80641    0.00734     0.81375
    H 12    0.24439      0.00000     0.74975    0.00587     0.75561
    H 13    0.23353      0.00000     0.76069    0.00579     0.76647
    H 14    0.18727      0.00000     0.80771    0.00502     0.81273
    H 15    0.20905      0.00000     0.78717    0.00378     0.79095
    H 16    0.35194      0.00000     0.64274    0.00532     0.64806
    H 17    0.36016      0.00000     0.63490    0.00494     0.63984
 ====================================================================
 * Total *  0.00000     13.99503    41.83000    0.17497    56.00000

                                 Natural Population
 ---------------------------------------------------------
   Core                      13.99503 ( 99.9645% of   14)
   Valence                   41.83000 ( 99.5952% of   42)
   Natural Minimal Basis     55.82503 ( 99.6876% of   56)
   Natural Rydberg Basis      0.17497 (  0.3124% of   56)
 ---------------------------------------------------------

    Atom No         Natural Electron Configuration
 ----------------------------------------------------------------------------
      C  1      [core]2s( 1.09)2p( 3.16)3p( 0.01)3d( 0.01)
      O  2      [core]2s( 1.64)2p( 4.74)3d( 0.01)
      N  3      [core]2s( 1.44)2p( 3.71)3s( 0.01)3p( 0.01)3d( 0.01)
      C  4      [core]2s( 0.92)2p( 3.00)3s( 0.01)3p( 0.02)
      C  5      [core]2s( 1.03)2p( 3.46)3p( 0.01)
      C  6      [core]2s( 1.00)2p( 3.20)3p( 0.01)
      N  7      [core]2s( 1.41)2p( 4.44)3p( 0.01)
      H  8            1s( 0.79)
      H  9            1s( 0.81)
      H 10            1s( 0.81)
      H 11            1s( 0.81)2s( 0.01)
      H 12            1s( 0.75)
      H 13            1s( 0.76)
      H 14            1s( 0.81)
      H 15            1s( 0.79)
      H 16            1s( 0.64)
      H 17            1s( 0.63)


 NATURAL BOND ORBITAL ANALYSIS:

                            Occupancies       Lewis Structure    Low   High
         Max    Occ     -------------------  -----------------   occ   occ
  Cycle  Ctr   Thresh    Lewis   non-Lewis     CR  BD  nC  LP    (L)   (NL)
 ============================================================================
    1     2     1.90    55.44098   0.55902      7  17   0   4     1      1
    2     2     1.89    55.44098   0.55902      7  17   0   4     1      1
    3     2     1.85    55.44102   0.55898      7  17   0   4     0      1
 ----------------------------------------------------------------------------

 Structure accepted: No low occupancy Lewis orbitals

 -------------------------------------------------------
   Core                     13.99503 ( 99.965% of  14)
   Valence Lewis            41.44598 ( 98.681% of  42)
  ==================      =============================
   Total Lewis              55.44102 ( 99.002% of  56)
  -----------------------------------------------------
   Valence non-Lewis         0.44736 (  0.799% of  56)
   Rydberg non-Lewis         0.11162 (  0.199% of  56)
  ==================      =============================
   Total non-Lewis           0.55898 (  0.998% of  56)
 -------------------------------------------------------


     (Occupancy)   Bond orbital / Coefficients / Hybrids
 ------------------ Lewis ------------------------------------------------------
   1. (1.99927) CR ( 1) C  1            s(100.00%)
                                         1.0000  0.0000  0.0000  0.0000  0.0000
                                         0.0000  0.0000  0.0000  0.0000  0.0000
                                         0.0000  0.0000  0.0000  0.0000
   2. (1.99971) CR ( 1) O  2            s(100.00%)
                                         1.0000  0.0000  0.0000  0.0000  0.0000
                                         0.0000  0.0000  0.0000  0.0000  0.0000
                                         0.0000  0.0000  0.0000  0.0000
   3. (1.99918) CR ( 1) N  3            s(100.00%)
                                         1.0000  0.0000  0.0000  0.0000  0.0000
                                         0.0000  0.0000  0.0000  0.0000  0.0000
                                         0.0000  0.0000  0.0000  0.0000
   4. (1.99920) CR ( 1) C  4            s(100.00%)
                                         1.0000  0.0000  0.0000  0.0000  0.0000
                                         0.0000  0.0000  0.0000  0.0000  0.0000
                                         0.0000  0.0000  0.0000  0.0000
   5. (1.99906) CR ( 1) C  5            s(100.00%)
                                         1.0000  0.0000  0.0000  0.0000  0.0000
                                         0.0000  0.0000  0.0000  0.0000  0.0000
                                         0.0000  0.0000  0.0000  0.0000
   6. (1.99916) CR ( 1) C  6            s(100.00%)
                                         1.0000  0.0000  0.0000  0.0000  0.0000
                                         0.0000  0.0000  0.0000  0.0000  0.0000
                                         0.0000  0.0000  0.0000  0.0000
   7. (1.99946) CR ( 1) N  7            s(100.00%)
                                         1.0000  0.0000  0.0000  0.0000  0.0000
                                         0.0000  0.0000  0.0000  0.0000  0.0000
                                         0.0000  0.0000  0.0000  0.0000
   8. (1.97975) LP ( 1) O  2            s( 49.69%)p 1.01( 50.28%)d 0.00(  0.03%)
                                         0.0000  0.7048 -0.0114  0.1655 -0.0038
                                         0.6351 -0.0074 -0.2682  0.0050 -0.0066
                                        -0.0006  0.0100  0.0117  0.0051
   9. (1.85445) LP ( 2) O  2            s(  0.00%)p 1.00( 99.94%)d 0.00(  0.06%)
                                         0.0000  0.0016  0.0000  0.6915 -0.0041
                                         0.1187 -0.0008  0.7122 -0.0047 -0.0159
                                         0.0024 -0.0151  0.0002  0.0089
  10. (1.95121) LP ( 1) N  3            s( 39.39%)p 1.54( 60.54%)d 0.00(  0.07%)
                                         0.0000  0.6267 -0.0339 -0.2648 -0.0138
                                        -0.6325 -0.0245  0.3662  0.0180 -0.0121
                                         0.0064  0.0175  0.0147  0.0057
  11. (1.95439) LP ( 1) N  7            s( 19.54%)p 4.11( 80.39%)d 0.00(  0.07%)
                                         0.0000  0.4419 -0.0136 -0.1762 -0.0146
                                         0.0322  0.0073 -0.8775 -0.0386  0.0004
                                        -0.0089  0.0023 -0.0008 -0.0240
  12. (1.99392) BD ( 1) C  1- O  2
               ( 31.76%)   0.5636* C  1 s( 21.09%)p 3.73( 78.66%)d 0.01(  0.26%)
                                         0.0000  0.4582  0.0306  0.6005  0.0262
                                         0.2069  0.0356 -0.6167 -0.0309  0.0137
                                        -0.0416 -0.0142  0.0175  0.0114
               ( 68.24%)   0.8261* O  2 s( 29.93%)p 2.34( 69.99%)d 0.00(  0.08%)
                                         0.0000  0.5469  0.0128 -0.5625 -0.0055
                                        -0.2145  0.0176  0.5807  0.0024  0.0133
                                        -0.0197 -0.0155  0.0012  0.0028
  13. (1.98699) BD ( 1) C  1- H  8
               ( 60.27%)   0.7763* C  1 s( 25.42%)p 2.93( 74.54%)d 0.00(  0.05%)
                                         0.0000  0.5041  0.0069 -0.3813  0.0080
                                         0.7334 -0.0098  0.2489 -0.0059 -0.0128
                                        -0.0013  0.0078 -0.0122 -0.0090
               ( 39.73%)   0.6303* H  8 s( 99.90%)p 0.00(  0.10%)
                                         0.9995 -0.0015  0.0148 -0.0261 -0.0100
  14. (1.99688) BD ( 1) C  1- H  9
               ( 60.13%)   0.7754* C  1 s( 26.78%)p 2.73( 73.18%)d 0.00(  0.04%)
                                         0.0000  0.5174 -0.0110  0.4077 -0.0128
                                        -0.3661  0.0043  0.6568  0.0033 -0.0075
                                         0.0136 -0.0101  0.0004  0.0079
               ( 39.87%)   0.6314* H  9 s( 99.90%)p 0.00(  0.10%)
                                         0.9995 -0.0064 -0.0143  0.0140 -0.0235
  15. (1.99688) BD ( 1) C  1- H 10
               ( 60.17%)   0.7757* C  1 s( 26.79%)p 2.73( 73.17%)d 0.00(  0.04%)
                                         0.0000  0.5175 -0.0115 -0.5699 -0.0043
                                        -0.5325  0.0057 -0.3509  0.0118  0.0135
                                         0.0105  0.0093  0.0013 -0.0055
               ( 39.83%)   0.6311* H 10 s( 99.91%)p 0.00(  0.09%)
                                         0.9995 -0.0064  0.0201  0.0197  0.0122
  16. (1.98217) BD ( 1) O  2- N  3
               ( 59.09%)   0.7687* O  2 s( 20.40%)p 3.90( 79.48%)d 0.01(  0.12%)
                                         0.0000  0.4514  0.0156  0.4204  0.0133
                                        -0.7315 -0.0147 -0.2873 -0.0104 -0.0191
                                        -0.0067  0.0100 -0.0209 -0.0151
               ( 40.91%)   0.6396* N  3 s( 15.97%)p 5.25( 83.78%)d 0.02(  0.25%)
                                         0.0000  0.3974  0.0414 -0.4346  0.0257
                                         0.7467 -0.0283  0.2992 -0.0214 -0.0286
                                        -0.0090  0.0153 -0.0303 -0.0220
  17. (1.98889) BD ( 1) N  3- C  4
               ( 60.56%)   0.7782* N  3 s( 44.92%)p 1.22( 54.95%)d 0.00(  0.13%)
                                         0.0000  0.6691  0.0381  0.5162 -0.0015
                                         0.1482  0.0032 -0.5109  0.0021  0.0145
                                        -0.0276 -0.0156  0.0075  0.0061
               ( 39.44%)   0.6280* C  4 s( 33.23%)p 2.01( 66.65%)d 0.00(  0.12%)
                                         0.0000  0.5745  0.0475 -0.5437 -0.0371
                                        -0.1672 -0.0061  0.5831  0.0399  0.0077
                                        -0.0295 -0.0091  0.0106  0.0081
  18. (1.97887) BD ( 2) N  3- C  4
               ( 56.24%)   0.7499* N  3 s(  0.01%)p 1.00( 99.82%)d 0.00(  0.17%)
                                         0.0000  0.0093 -0.0001 -0.6867  0.0088
                                        -0.1177  0.0008 -0.7159  0.0079 -0.0200
                                         0.0020 -0.0152 -0.0116  0.0311
               ( 43.76%)   0.6615* C  4 s(  0.01%)p99.99( 99.84%)d11.47(  0.15%)
                                         0.0000  0.0081  0.0080 -0.7037  0.0204
                                        -0.1190  0.0003 -0.6988  0.0180  0.0102
                                        -0.0011  0.0034  0.0169 -0.0330
  19. (1.96887) BD ( 1) C  4- C  5
               ( 49.08%)   0.7005* C  4 s( 35.64%)p 1.80( 64.32%)d 0.00(  0.04%)
                                         0.0000  0.5970 -0.0004  0.4424 -0.0164
                                        -0.5750  0.0119 -0.3412 -0.0024 -0.0122
                                        -0.0072  0.0073 -0.0075 -0.0071
               ( 50.92%)   0.7136* C  5 s( 27.85%)p 2.59( 72.10%)d 0.00(  0.04%)
                                         0.0000  0.5277  0.0107 -0.4752 -0.0126
                                         0.6132  0.0039  0.3449 -0.0087 -0.0132
                                        -0.0076  0.0119 -0.0051 -0.0053
  20. (1.98105) BD ( 1) C  4- H 11
               ( 60.37%)   0.7770* C  4 s( 31.23%)p 2.20( 68.75%)d 0.00(  0.03%)
                                         0.0000  0.5580 -0.0308  0.0988 -0.0030
                                         0.7910 -0.0020 -0.2282 -0.0010  0.0022
                                        -0.0007 -0.0061 -0.0134 -0.0073
               ( 39.63%)   0.6295* H 11 s( 99.89%)p 0.00(  0.11%)
                                         0.9994 -0.0124 -0.0033 -0.0320  0.0091
  21. (1.96847) BD ( 1) C  5- C  6
               ( 50.88%)   0.7133* C  5 s( 28.01%)p 2.57( 71.96%)d 0.00(  0.03%)
                                         0.0000  0.5292  0.0069  0.8273  0.0056
                                         0.0954 -0.0085  0.1609 -0.0009  0.0055
                                         0.0068  0.0024  0.0132 -0.0080
               ( 49.12%)   0.7008* C  6 s( 28.68%)p 2.49( 71.28%)d 0.00(  0.04%)
                                         0.0000  0.5355 -0.0007 -0.8234  0.0106
                                        -0.0985 -0.0015 -0.1579  0.0007  0.0051
                                         0.0074  0.0010  0.0148 -0.0092
  22. (1.95973) BD ( 1) C  5- H 12
               ( 62.39%)   0.7899* C  5 s( 21.73%)p 3.60( 78.24%)d 0.00(  0.03%)
                                         0.0000  0.4661 -0.0068 -0.1271 -0.0083
                                        -0.0070 -0.0132 -0.8752  0.0072 -0.0016
                                         0.0046 -0.0031  0.0009  0.0166
               ( 37.61%)   0.6133* H 12 s( 99.88%)p 0.00(  0.12%)
                                         0.9994 -0.0069  0.0030  0.0022  0.0341
  23. (1.97386) BD ( 1) C  5- H 13
               ( 62.00%)   0.7874* C  5 s( 22.41%)p 3.46( 77.56%)d 0.00(  0.03%)
                                         0.0000  0.4733 -0.0072 -0.2700 -0.0044
                                        -0.7836  0.0050  0.2973 -0.0150  0.0082
                                        -0.0047 -0.0107 -0.0091 -0.0052
               ( 38.00%)   0.6164* H 13 s( 99.89%)p 0.00(  0.11%)
                                         0.9994 -0.0062  0.0118  0.0289 -0.0105
  24. (1.99051) BD ( 1) C  6- N  7
               ( 40.10%)   0.6332* C  6 s( 24.28%)p 3.11( 75.61%)d 0.00(  0.11%)
                                         0.0000  0.4915  0.0345  0.4702  0.0277
                                        -0.6080 -0.0153 -0.4051 -0.0153 -0.0198
                                        -0.0145  0.0199 -0.0061 -0.0059
               ( 59.90%)   0.7740* N  7 s( 33.98%)p 1.94( 65.95%)d 0.00(  0.06%)
                                         0.0000  0.5829  0.0045 -0.4259 -0.0027
                                         0.5641 -0.0091  0.3998  0.0003 -0.0052
                                        -0.0155  0.0191 -0.0036  0.0012
  25. (1.98570) BD ( 1) C  6- H 14
               ( 60.37%)   0.7770* C  6 s( 24.23%)p 3.13( 75.74%)d 0.00(  0.04%)
                                         0.0000  0.4920 -0.0135  0.1617  0.0086
                                        -0.0466  0.0077  0.8537 -0.0099  0.0007
                                         0.0038 -0.0009  0.0006  0.0187
               ( 39.63%)   0.6295* H 14 s( 99.89%)p 0.00(  0.11%)
                                         0.9994 -0.0084 -0.0051  0.0002 -0.0331
  26. (1.97580) BD ( 1) C  6- H 15
               ( 60.75%)   0.7794* C  6 s( 22.86%)p 3.37( 77.10%)d 0.00(  0.04%)
                                         0.0000  0.4781 -0.0071  0.2714  0.0078
                                         0.7851 -0.0096 -0.2840  0.0088  0.0086
                                        -0.0030 -0.0117 -0.0112 -0.0067
               ( 39.25%)   0.6265* H 15 s( 99.89%)p 0.00(  0.11%)
                                         0.9994 -0.0048 -0.0098 -0.0301  0.0101
  27. (1.98970) BD ( 1) N  7- H 16
               ( 67.98%)   0.8245* N  7 s( 23.11%)p 3.32( 76.81%)d 0.00(  0.08%)
                                         0.0000  0.4807  0.0055 -0.1909 -0.0005
                                        -0.8171  0.0342  0.2504  0.0080  0.0029
                                        -0.0061 -0.0243 -0.0123 -0.0036
               ( 32.02%)   0.5659* H 16 s( 99.81%)p 0.00(  0.19%)
                                         0.9990 -0.0040  0.0112  0.0411 -0.0083
  28. (1.98788) BD ( 1) N  7- H 17
               ( 68.22%)   0.8260* N  7 s( 23.28%)p 3.29( 76.64%)d 0.00(  0.08%)
                                         0.0000  0.4824  0.0087  0.8657 -0.0267
                                         0.1039  0.0051  0.0728  0.0133  0.0034
                                         0.0197  0.0024  0.0161 -0.0114
               ( 31.78%)   0.5637* H 17 s( 99.81%)p 0.00(  0.19%)
                                         0.9990 -0.0026 -0.0432 -0.0071  0.0004
 ---------------- non-Lewis ----------------------------------------------------
  29. (0.00589) BD*( 1) C  1- O  2
               ( 68.24%)   0.8261* C  1 s( 21.09%)p 3.73( 78.66%)d 0.01(  0.26%)
                                         0.0000  0.4582  0.0306  0.6005  0.0262
                                         0.2069  0.0356 -0.6167 -0.0309  0.0137
                                        -0.0416 -0.0142  0.0175  0.0114
               ( 31.76%)  -0.5636* O  2 s( 29.93%)p 2.34( 69.99%)d 0.00(  0.08%)
                                         0.0000  0.5469  0.0128 -0.5625 -0.0055
                                        -0.2145  0.0176  0.5807  0.0024  0.0133
                                        -0.0197 -0.0155  0.0012  0.0028
  30. (0.00896) BD*( 1) C  1- H  8
               ( 39.73%)   0.6303* C  1 s( 25.42%)p 2.93( 74.54%)d 0.00(  0.05%)
                                         0.0000 -0.5041 -0.0069  0.3813 -0.0080
                                        -0.7334  0.0098 -0.2489  0.0059  0.0128
                                         0.0013 -0.0078  0.0122  0.0090
               ( 60.27%)  -0.7763* H  8 s( 99.90%)p 0.00(  0.10%)
                                        -0.9995  0.0015 -0.0148  0.0261  0.0100
  31. (0.02085) BD*( 1) C  1- H  9
               ( 39.87%)   0.6314* C  1 s( 26.78%)p 2.73( 73.18%)d 0.00(  0.04%)
                                         0.0000 -0.5174  0.0110 -0.4077  0.0128
                                         0.3661 -0.0043 -0.6568 -0.0033  0.0075
                                        -0.0136  0.0101 -0.0004 -0.0079
               ( 60.13%)  -0.7754* H  9 s( 99.90%)p 0.00(  0.10%)
                                        -0.9995  0.0064  0.0143 -0.0140  0.0235
  32. (0.02067) BD*( 1) C  1- H 10
               ( 39.83%)   0.6311* C  1 s( 26.79%)p 2.73( 73.17%)d 0.00(  0.04%)
                                         0.0000 -0.5175  0.0115  0.5699  0.0043
                                         0.5325 -0.0057  0.3509 -0.0118 -0.0135
                                        -0.0105 -0.0093 -0.0013  0.0055
               ( 60.17%)  -0.7757* H 10 s( 99.91%)p 0.00(  0.09%)
                                        -0.9995  0.0064 -0.0201 -0.0197 -0.0122
  33. (0.03476) BD*( 1) O  2- N  3
               ( 40.91%)   0.6396* O  2 s( 20.40%)p 3.90( 79.48%)d 0.01(  0.12%)
                                         0.0000 -0.4514 -0.0156 -0.4204 -0.0133
                                         0.7315  0.0147  0.2873  0.0104  0.0191
                                         0.0067 -0.0100  0.0209  0.0151
               ( 59.09%)  -0.7687* N  3 s( 15.97%)p 5.25( 83.78%)d 0.02(  0.25%)
                                         0.0000 -0.3974 -0.0414  0.4346 -0.0257
                                        -0.7467  0.0283 -0.2992  0.0214  0.0286
                                         0.0090 -0.0153  0.0303  0.0220
  34. (0.01077) BD*( 1) N  3- C  4
               ( 39.44%)   0.6280* N  3 s( 44.92%)p 1.22( 54.95%)d 0.00(  0.13%)
                                         0.0000 -0.6691 -0.0381 -0.5162  0.0015
                                        -0.1482 -0.0032  0.5109 -0.0021 -0.0145
                                         0.0276  0.0156 -0.0075 -0.0061
               ( 60.56%)  -0.7782* C  4 s( 33.23%)p 2.01( 66.65%)d 0.00(  0.12%)
                                         0.0000 -0.5745 -0.0475  0.5437  0.0371
                                         0.1672  0.0061 -0.5831 -0.0399 -0.0077
                                         0.0295  0.0091 -0.0106 -0.0081
  35. (0.14279) BD*( 2) N  3- C  4
               ( 43.76%)   0.6615* N  3 s(  0.01%)p 1.00( 99.82%)d 0.00(  0.17%)
                                         0.0000  0.0093 -0.0001 -0.6867  0.0088
                                        -0.1177  0.0008 -0.7159  0.0079 -0.0200
                                         0.0020 -0.0152 -0.0116  0.0311
               ( 56.24%)  -0.7499* C  4 s(  0.01%)p99.99( 99.84%)d11.47(  0.15%)
                                         0.0000  0.0081  0.0080 -0.7037  0.0204
                                        -0.1190  0.0003 -0.6988  0.0180  0.0102
                                        -0.0011  0.0034  0.0169 -0.0330
  36. (0.01818) BD*( 1) C  4- C  5
               ( 50.92%)   0.7136* C  4 s( 35.64%)p 1.80( 64.32%)d 0.00(  0.04%)
                                         0.0000  0.5970 -0.0004  0.4424 -0.0164
                                        -0.5750  0.0119 -0.3412 -0.0024 -0.0122
                                        -0.0072  0.0073 -0.0075 -0.0071
               ( 49.08%)  -0.7005* C  5 s( 27.85%)p 2.59( 72.10%)d 0.00(  0.04%)
                                         0.0000  0.5277  0.0107 -0.4752 -0.0126
                                         0.6132  0.0039  0.3449 -0.0087 -0.0132
                                        -0.0076  0.0119 -0.0051 -0.0053
  37. (0.03658) BD*( 1) C  4- H 11
               ( 39.63%)   0.6295* C  4 s( 31.23%)p 2.20( 68.75%)d 0.00(  0.03%)
                                         0.0000 -0.5580  0.0308 -0.0988  0.0030
                                        -0.7910  0.0020  0.2282  0.0010 -0.0022
                                         0.0007  0.0061  0.0134  0.0073
               ( 60.37%)  -0.7770* H 11 s( 99.89%)p 0.00(  0.11%)
                                        -0.9994  0.0124  0.0033  0.0320 -0.0091
  38. (0.02446) BD*( 1) C  5- C  6
               ( 49.12%)   0.7008* C  5 s( 28.01%)p 2.57( 71.96%)d 0.00(  0.03%)
                                         0.0000 -0.5292 -0.0069 -0.8273 -0.0056
                                        -0.0954  0.0085 -0.1609  0.0009 -0.0055
                                        -0.0068 -0.0024 -0.0132  0.0080
               ( 50.88%)  -0.7133* C  6 s( 28.68%)p 2.49( 71.28%)d 0.00(  0.04%)
                                         0.0000 -0.5355  0.0007  0.8234 -0.0106
                                         0.0985  0.0015  0.1579 -0.0007 -0.0051
                                        -0.0074 -0.0010 -0.0148  0.0092
  39. (0.02165) BD*( 1) C  5- H 12
               ( 37.61%)   0.6133* C  5 s( 21.73%)p 3.60( 78.24%)d 0.00(  0.03%)
                                         0.0000 -0.4661  0.0068  0.1271  0.0083
                                         0.0070  0.0132  0.8752 -0.0072  0.0016
                                        -0.0046  0.0031 -0.0009 -0.0166
               ( 62.39%)  -0.7899* H 12 s( 99.88%)p 0.00(  0.12%)
                                        -0.9994  0.0069 -0.0030 -0.0022 -0.0341
  40. (0.01845) BD*( 1) C  5- H 13
               ( 38.00%)   0.6164* C  5 s( 22.41%)p 3.46( 77.56%)d 0.00(  0.03%)
                                         0.0000 -0.4733  0.0072  0.2700  0.0044
                                         0.7836 -0.0050 -0.2973  0.0150 -0.0082
                                         0.0047  0.0107  0.0091  0.0052
               ( 62.00%)  -0.7874* H 13 s( 99.89%)p 0.00(  0.11%)
                                        -0.9994  0.0062 -0.0118 -0.0289  0.0105
  41. (0.01033) BD*( 1) C  6- N  7
               ( 59.90%)   0.7740* C  6 s( 24.28%)p 3.11( 75.61%)d 0.00(  0.11%)
                                         0.0000  0.4915  0.0345  0.4702  0.0277
                                        -0.6080 -0.0153 -0.4051 -0.0153 -0.0198
                                        -0.0145  0.0199 -0.0061 -0.0059
               ( 40.10%)  -0.6332* N  7 s( 33.98%)p 1.94( 65.95%)d 0.00(  0.06%)
                                         0.0000  0.5829  0.0045 -0.4259 -0.0027
                                         0.5641 -0.0091  0.3998  0.0003 -0.0052
                                        -0.0155  0.0191 -0.0036  0.0012
  42. (0.03591) BD*( 1) C  6- H 14
               ( 39.63%)   0.6295* C  6 s( 24.23%)p 3.13( 75.74%)d 0.00(  0.04%)
                                         0.0000 -0.4920  0.0135 -0.1617 -0.0086
                                         0.0466 -0.0077 -0.8537  0.0099 -0.0007
                                        -0.0038  0.0009 -0.0006 -0.0187
               ( 60.37%)  -0.7770* H 14 s( 99.89%)p 0.00(  0.11%)
                                        -0.9994  0.0084  0.0051 -0.0002  0.0331
  43. (0.02064) BD*( 1) C  6- H 15
               ( 39.25%)   0.6265* C  6 s( 22.86%)p 3.37( 77.10%)d 0.00(  0.04%)
                                         0.0000 -0.4781  0.0071 -0.2714 -0.0078
                                        -0.7851  0.0096  0.2840 -0.0088 -0.0086
                                         0.0030  0.0117  0.0112  0.0067
               ( 60.75%)  -0.7794* H 15 s( 99.89%)p 0.00(  0.11%)
                                        -0.9994  0.0048  0.0098  0.0301 -0.0101
  44. (0.01002) BD*( 1) N  7- H 16
               ( 32.02%)   0.5659* N  7 s( 23.11%)p 3.32( 76.81%)d 0.00(  0.08%)
                                         0.0000 -0.4807 -0.0055  0.1909  0.0005
                                         0.8171 -0.0342 -0.2504 -0.0080 -0.0029
                                         0.0061  0.0243  0.0123  0.0036
               ( 67.98%)  -0.8245* H 16 s( 99.81%)p 0.00(  0.19%)
                                        -0.9990  0.0040 -0.0112 -0.0411  0.0083
  45. (0.00642) BD*( 1) N  7- H 17
               ( 31.78%)   0.5637* N  7 s( 23.28%)p 3.29( 76.64%)d 0.00(  0.08%)
                                         0.0000 -0.4824 -0.0087 -0.8657  0.0267
                                        -0.1039 -0.0051 -0.0728 -0.0133 -0.0034
                                        -0.0197 -0.0024 -0.0161  0.0114
               ( 68.22%)  -0.8260* H 17 s( 99.81%)p 0.00(  0.19%)
                                        -0.9990  0.0026  0.0432  0.0071 -0.0004
  46. (0.00442) RY ( 1) C  1            s( 25.50%)p 2.52( 64.29%)d 0.40( 10.21%)
                                         0.0000 -0.0084  0.5049 -0.0216  0.5688
                                        -0.0349 -0.2151  0.0266 -0.5203 -0.1770
                                        -0.0939  0.1991  0.1442  0.0390
  47. (0.00173) RY ( 2) C  1            s(  0.18%)p99.99( 96.41%)d18.50(  3.40%)
                                         0.0000 -0.0202  0.0378 -0.0338  0.1198
                                        -0.0025  0.9386  0.0352 -0.2578  0.1306
                                        -0.0464 -0.0755  0.0923 -0.0244
  48. (0.00152) RY ( 3) C  1            s(  0.00%)p 1.00(  2.33%)d42.00( 97.67%)
                                         0.0000 -0.0018  0.0020 -0.0138 -0.0733
                                        -0.0022  0.0667 -0.0078 -0.1148 -0.2762
                                         0.0002 -0.1403 -0.4073  0.8455
  49. (0.00039) RY ( 4) C  1            s(  5.01%)p 3.80( 19.03%)d15.15( 75.96%)
                                         0.0000  0.0029  0.2239  0.0141 -0.2870
                                        -0.0034  0.2260 -0.0135  0.2376 -0.6338
                                        -0.0337  0.5821 -0.0217 -0.1318
  50. (0.00025) RY ( 5) C  1            s(  0.01%)p99.99( 96.72%)d99.99(  3.26%)
                                         0.0000 -0.0003  0.0120  0.0028  0.6787
                                         0.0002  0.1173  0.0034  0.7020 -0.1160
                                         0.0168 -0.1093 -0.0139  0.0822
  51. (0.00002) RY ( 6) C  1            s( 59.30%)p 0.15(  8.60%)d 0.54( 32.10%)
  52. (0.00001) RY ( 7) C  1            s(  1.27%)p 0.29(  0.37%)d77.65( 98.37%)
  53. (0.00000) RY ( 8) C  1            s(  8.65%)p 1.27( 10.97%)d 9.29( 80.38%)
  54. (0.00000) RY ( 9) C  1            s(  0.00%)p 1.00(  1.74%)d56.57( 98.26%)
  55. (0.00336) RY ( 1) O  2            s( 43.61%)p 0.92( 40.02%)d 0.38( 16.38%)
                                         0.0000 -0.0077  0.6603  0.0037  0.3425
                                         0.0171  0.3715 -0.0066 -0.3801 -0.1239
                                        -0.2514  0.1480  0.2316  0.0982
  56. (0.00195) RY ( 2) O  2            s(  0.01%)p 1.00( 94.95%)d 0.05(  5.05%)
                                         0.0000  0.0000  0.0079 -0.0004 -0.6755
                                         0.0000 -0.1059 -0.0008 -0.6942  0.1504
                                        -0.0273  0.1529 -0.0151 -0.0590
  57. (0.00039) RY ( 3) O  2            s(  3.88%)p12.52( 48.50%)d12.29( 47.62%)
                                         0.0000 -0.0036  0.1968 -0.0041 -0.4327
                                         0.0058  0.4035  0.0036  0.3673 -0.4506
                                         0.0634  0.3794 -0.3037 -0.1815
  58. (0.00037) RY ( 4) O  2            s(  0.05%)p 9.56(  0.44%)d99.99( 99.52%)
                                         0.0000 -0.0003  0.0214 -0.0025 -0.0643
                                         0.0004  0.0084 -0.0014 -0.0126 -0.2338
                                         0.0828 -0.3348  0.4993 -0.7564
  59. (0.00015) RY ( 5) O  2            s(  0.01%)p 1.00( 34.43%)d 1.90( 65.56%)
                                         0.0000  0.0026  0.0075 -0.0225  0.4146
                                         0.0248 -0.1644  0.0176 -0.3794 -0.2023
                                         0.3830  0.0715 -0.5865 -0.3448
  60. (0.00009) RY ( 6) O  2            s( 39.97%)p 1.44( 57.41%)d 0.07(  2.61%)
  61. (0.00005) RY ( 7) O  2            s(  8.59%)p 2.25( 19.32%)d 8.39( 72.08%)
  62. (0.00001) RY ( 8) O  2            s(  3.87%)p 0.11(  0.42%)d24.75( 95.72%)
  63. (0.00000) RY ( 9) O  2            s(  0.00%)p 1.00(  4.82%)d19.74( 95.18%)
  64. (0.00572) RY ( 1) N  3            s( 42.09%)p 1.15( 48.20%)d 0.23(  9.71%)
                                         0.0000 -0.0056  0.6487 -0.0127  0.2800
                                        -0.0513  0.4882  0.0201 -0.4026 -0.1104
                                        -0.1841  0.1298  0.1706  0.0712
  65. (0.00286) RY ( 2) N  3            s(  1.44%)p59.84( 86.02%)d 8.72( 12.54%)
                                         0.0000 -0.0173  0.1186  0.0075  0.5053
                                        -0.0239 -0.7138 -0.0015 -0.3078  0.2191
                                        -0.0648 -0.1643  0.1726  0.1280
  66. (0.00127) RY ( 3) N  3            s(  0.09%)p 7.35(  0.68%)d99.99( 99.23%)
                                         0.0000 -0.0009  0.0305 -0.0084  0.0326
                                        -0.0021  0.0040 -0.0075  0.0749 -0.3177
                                         0.0861 -0.4640  0.5045 -0.6435
  67. (0.00076) RY ( 4) N  3            s( 43.22%)p 1.22( 52.67%)d 0.10(  4.11%)
                                         0.0000 -0.0286  0.6568 -0.0037 -0.3627
                                        -0.0161 -0.3755  0.0070  0.5038 -0.0709
                                        -0.1300  0.1130  0.0605  0.0526
  68. (0.00035) RY ( 5) N  3            s(  0.03%)p99.99( 98.41%)d45.62(  1.56%)
                                         0.0000 -0.0038  0.0181 -0.0023 -0.6797
                                        -0.0060 -0.2203 -0.0122 -0.6880 -0.1098
                                        -0.0175 -0.0146 -0.0028 -0.0546
  69. (0.00016) RY ( 6) N  3            s(  0.75%)p16.99( 12.70%)d99.99( 86.55%)
                                         0.0000 -0.0095  0.0859  0.0395  0.2601
                                        -0.0416 -0.2201 -0.0300 -0.0820 -0.5109
                                         0.2132  0.3546 -0.5330 -0.3864
  70. (0.00009) RY ( 7) N  3            s( 11.39%)p 0.15(  1.71%)d 7.63( 86.90%)
  71. (0.00001) RY ( 8) N  3            s(  0.71%)p 0.23(  0.16%)d99.99( 99.12%)
  72. (0.00001) RY ( 9) N  3            s(  0.00%)p 1.00(  0.35%)d99.99( 99.65%)
  73. (0.01170) RY ( 1) C  4            s( 42.14%)p 1.19( 50.32%)d 0.18(  7.54%)
                                         0.0000 -0.0336  0.6483  0.0364 -0.4859
                                         0.0362  0.1861 -0.0375  0.4779 -0.1704
                                        -0.0745  0.1809  0.0889  0.0123
  74. (0.00440) RY ( 2) C  4            s(  1.67%)p56.21( 93.87%)d 2.67(  4.46%)
                                         0.0000  0.0143  0.1284  0.0015  0.5130
                                         0.0074  0.8208  0.0175 -0.0392 -0.0438
                                        -0.0528  0.0208  0.1986  0.0000
  75. (0.00390) RY ( 3) C  4            s(  9.50%)p 8.84( 84.00%)d 0.68(  6.50%)
                                         0.0000  0.0094  0.3081  0.0374  0.6527
                                         0.0037 -0.4564  0.0073  0.4518 -0.0054
                                         0.0119 -0.1166  0.1029 -0.2017
  76. (0.00107) RY ( 4) C  4            s( 26.47%)p 1.88( 49.86%)d 0.89( 23.67%)
                                         0.0000  0.0114  0.5144 -0.0009  0.1196
                                         0.0141 -0.2615 -0.0174 -0.6445 -0.0366
                                        -0.2247  0.1867  0.2247  0.3154
  77. (0.00046) RY ( 5) C  4            s(  0.36%)p33.51( 12.10%)d99.99( 87.54%)
                                         0.0000  0.0015  0.0601  0.0052 -0.1567
                                         0.0049 -0.0158  0.0237 -0.3092 -0.2750
                                         0.1271 -0.1266  0.3543 -0.8013
  78. (0.00029) RY ( 6) C  4            s(  0.46%)p 9.80(  4.50%)d99.99( 95.04%)
                                         0.0000  0.0110  0.0668 -0.0274  0.1799
                                        -0.0021 -0.0030  0.0174 -0.1074 -0.4880
                                         0.2798  0.5034 -0.6045 -0.1233
  79. (0.00012) RY ( 7) C  4            s( 18.29%)p 0.30(  5.50%)d 4.17( 76.21%)
                                         0.0000 -0.0024  0.4277  0.0061 -0.0290
                                         0.0009  0.1187 -0.0051 -0.2001  0.5044
                                         0.1660 -0.3860 -0.5357 -0.2102
  80. (0.00002) RY ( 8) C  4            s(  0.54%)p 0.12(  0.07%)d99.99( 99.40%)
  81. (0.00000) RY ( 9) C  4            s(  0.46%)p 0.49(  0.22%)d99.99( 99.32%)
  82. (0.00527) RY ( 1) C  5            s(  0.07%)p99.99( 96.22%)d52.30(  3.71%)
                                         0.0000 -0.0007  0.0266  0.0014  0.5275
                                         0.0085  0.2330 -0.0190 -0.7932  0.0063
                                        -0.0732 -0.0623 -0.0709 -0.1510
  83. (0.00321) RY ( 2) C  5            s( 14.76%)p 5.33( 78.62%)d 0.45(  6.63%)
                                         0.0000 -0.0036  0.3841 -0.0123  0.3180
                                        -0.0088 -0.8273  0.0061 -0.0205 -0.2176
                                        -0.0306 -0.0286  0.1265 -0.0336
  84. (0.00092) RY ( 3) C  5            s( 40.93%)p 0.82( 33.68%)d 0.62( 25.40%)
                                         0.0000 -0.0080  0.6397  0.0035 -0.5128
                                        -0.0085  0.1799 -0.0157 -0.2027 -0.0171
                                        -0.2318 -0.1132  0.2962 -0.3153
  85. (0.00063) RY ( 4) C  5            s( 23.72%)p 2.73( 64.83%)d 0.48( 11.45%)
                                         0.0000  0.0100  0.4870 -0.0051  0.4849
                                        -0.0115  0.4688 -0.0031  0.4396 -0.2923
                                         0.1258  0.0759  0.0059  0.0861
  86. (0.00036) RY ( 5) C  5            s(  4.74%)p 0.03(  0.13%)d20.07( 95.13%)
                                         0.0000 -0.0002  0.2177  0.0103  0.0211
                                        -0.0035 -0.0262 -0.0015  0.0054  0.2874
                                        -0.6613  0.3981 -0.3586  0.3800
  87. (0.00019) RY ( 6) C  5            s(  1.13%)p18.26( 20.72%)d68.87( 78.15%)
                                         0.0000 -0.0064  0.1063  0.0162 -0.3453
                                        -0.0111 -0.0170  0.0007 -0.2954 -0.5970
[...]
                  --------  --------  --------  --------  --------  --------
  0 C                -2.1      -3.9      -9.5      -0.4      -3.0      -6.7
  1 O               112.8     105.6     119.3     101.1     109.2     123.1
  2 N                -5.7      -1.5      -8.8      -0.5      -4.0     -15.5
  3 C                -3.4      -0.1      -0.5      -0.0      -1.8      -1.0
  4 C                -0.7      -0.1      -0.5      -0.0      -0.5      -0.0
  7 H                -0.0      -0.1       0.4      -0.0       0.2      -0.3
  8 H                -0.0       0.1      -0.1      -0.0       0.0       0.2
  9 H                -0.0       0.1      -0.1      -0.0       0.0       0.2
 10 H                -0.7       0.0      -0.1      -0.0       0.0       0.1

                     60        61        62        63        64        65   
                   0.00000   0.00000   0.00000   0.00000   0.00000   0.00000
                   0.00005   0.00001   0.00000   0.00572   0.00286   0.00127
                  --------  --------  --------  --------  --------  --------
  0 C                -4.6      -1.4      -0.9      -5.9      -8.4      -0.0
  1 O               104.6     102.3     101.5      -2.1     -26.5      -0.5
  2 N                 0.4      -0.8      -0.5     121.1     152.6     102.2
  3 C                -0.5      -0.0       0.0     -11.8     -16.0      -1.6
  4 C                 0.0      -0.0      -0.0       0.1      -0.6       0.0
  5 C                 0.0      -0.0      -0.0      -0.0      -0.2      -0.0
  7 H                 0.2      -0.0      -0.0      -0.1      -0.2      -0.0
  8 H                -0.0       0.0      -0.0      -0.1       0.1       0.0
 10 H                -0.0      -0.0      -0.0      -0.3      -0.1      -0.0
 12 H                -0.0      -0.0      -0.0      -0.6      -0.7      -0.0

                     66        67        68        69        70        71   
                   0.00000   0.00000   0.00000   0.00000   0.00000   0.00000
                   0.00076   0.00035   0.00016   0.00009   0.00001   0.00001
                  --------  --------  --------  --------  --------  --------
  0 C                -2.1      -0.0      -0.2      -0.4      -0.1      -0.1
  1 O                -6.8      -2.2       1.6      -2.0      -0.7       0.0
  2 N               170.0     109.1     101.1     112.6     101.3     101.5
  3 C               -60.1      -5.9      -2.8     -10.2      -0.4      -1.4
  4 C                -0.5      -0.0       0.4       0.5       0.0      -0.0
  5 C                 0.3      -0.3      -0.0      -0.0      -0.0      -0.0
  8 H                 0.1      -0.2       0.0      -0.0      -0.0       0.0
  9 H                 0.1      -0.2      -0.0      -0.0      -0.0       0.0
 10 H                -0.4      -0.1      -0.1      -0.2      -0.1      -0.0
 12 H                -0.1      -0.0       0.0      -0.2      -0.0      -0.0
 14 H                -0.2      -0.0       0.0      -0.0      -0.0      -0.0

                     72        73        74        75        76        77   
                   0.00000   0.00000   0.00000   0.00000   0.00000   0.00000
                   0.01170   0.00440   0.00390   0.00107   0.00046   0.00029
                  --------  --------  --------  --------  --------  --------
  0 C                -0.6      -0.1      -0.1      -0.1       0.0       0.0
  1 O                -4.1      -0.5      -1.8      -2.1      -0.1       0.1
  2 N               -61.5     -19.8     -13.9      -5.1      -1.7      -1.8
  3 C               182.0     163.9     160.8     177.0     107.2     108.3
  4 C                -8.8     -16.7     -37.4     -65.2      -4.6      -3.4
  5 C                 0.4      -1.5      -2.9       0.0      -0.4       0.0
  6 N                -0.0      -0.1      -1.0      -0.8      -0.1      -0.0
 10 H                -7.0     -25.4      -3.5      -4.2      -0.6      -3.2
 11 H                 0.0      -0.3      -0.2       0.4       0.4       0.0
 12 H                 0.4       0.9       1.0       0.4      -0.1      -0.1
 13 H                -0.4       0.1      -0.9       0.0      -0.1       0.0
 14 H                -0.4      -0.4      -0.1      -0.3       0.0       0.0
 15 H                -0.0      -0.0      -0.0      -0.1      -0.0       0.0

                     78        79        80        81        82        83   
                   0.00000   0.00000   0.00000   0.00000   0.00000   0.00000
                   0.00012   0.00002   0.00000   0.00527   0.00321   0.00092
                  --------  --------  --------  --------  --------  --------
  1 O                 0.6      -0.0       0.0      -0.2      -0.0      -0.6
  2 N                -6.6      -1.4      -1.1       1.3      -0.3      -0.2
  3 C               138.0     104.7     104.8     -27.2      -8.1     -62.4
  4 C               -18.3      -1.3      -0.4     169.7     154.6     194.5
  5 C                 0.2      -0.0      -0.3     -20.8     -19.6      -3.7
  6 N                -0.4      -0.1       0.0      -1.3      -2.8      -0.4
 10 H               -13.5      -1.8      -3.0      -0.2       0.1      -0.8
 11 H                 0.1      -0.0      -0.0     -12.4      -3.6     -19.3
 12 H                -0.0      -0.0      -0.1      -9.6     -20.3      -6.9
 13 H                -0.1      -0.0       0.0      -0.0       0.4      -0.1
 14 H                -0.1      -0.0       0.0       0.8      -0.2       0.1
 15 H                -0.0      -0.0       0.0      -0.1      -0.0      -0.1
 16 H                -0.0      -0.0      -0.0      -0.1      -0.1      -0.0

                     84        85        86        87        88        89   
                   0.00000   0.00000   0.00000   0.00000   0.00000   0.00000
                   0.00063   0.00036   0.00019   0.00010   0.00006   0.00001
                  --------  --------  --------  --------  --------  --------
  1 O                -0.5      -0.0       0.0      -0.3       0.0      -0.0
  2 N                -1.3      -0.3       0.1       0.2       0.3       0.0
  3 C               -31.8      -2.7      -2.4     -16.5      -2.2      -1.0
  4 C               192.9     114.6     113.6     136.7     114.4     107.9
  5 C               -60.2      -7.1      -2.5      -9.5      -0.9      -0.6
  6 N                 0.9       0.1      -0.2       0.8       0.0      -0.0
 10 H                -0.6       0.0      -0.2      -0.3      -0.1      -0.0
 11 H                 0.2      -2.9      -4.6      -6.4      -5.3      -2.3
 12 H                -0.8      -1.7      -3.7      -4.8      -6.4      -3.8
 13 H                 0.1       0.0       0.2      -0.1       0.0      -0.0
 14 H                 1.3      -0.0      -0.3       0.0       0.0      -0.0
 15 H                 0.0       0.0      -0.0       0.1      -0.0      -0.0
 16 H                -0.1      -0.0      -0.0      -0.0      -0.0      -0.0

                     90        91        92        93        94        95   
                   0.00000   0.00000   0.00000   0.00000   0.00000   0.00000
                   0.00302   0.00225   0.00113   0.00077   0.00048   0.00029
                  --------  --------  --------  --------  --------  --------
  2 N                -0.3      -0.0      -0.0      -0.0       0.0      -0.0
  3 C                -5.5      -0.5      -0.5      -1.3      -0.1      -0.7
  4 C               -13.2     -25.8      -0.8     -23.9     -34.2      -0.2
  5 C               149.4     158.6     113.7     159.8     137.3     133.6
  6 N                -7.9      -7.5      -1.5     -28.0      -0.8     -12.2
 10 H                 0.1       0.1       0.0      -0.0      -0.0      -0.1
 11 H                -0.1       0.8      -0.2       0.5       0.2      -0.1
 12 H                 0.3      -0.3       0.1      -0.3       0.2      -0.3
 13 H               -21.1      -1.7      -4.9      -4.3      -0.8      -8.1
 14 H                -1.2     -23.5      -5.4       0.1      -0.2     -10.4
 15 H                -0.3      -0.1      -0.4      -1.3      -0.4      -0.9
 16 H                -0.3      -0.1      -0.0      -1.2      -1.2      -0.6

                     96        97        98        99       100       101   
                   0.00000   0.00000   0.00000   0.00000   0.00000   0.00000
                   0.00010   0.00004   0.00000   0.00288   0.00125   0.00016
                  --------  --------  --------  --------  --------  --------
  3 C                 1.9       0.9       0.1      -0.6      -0.2      -1.1
  4 C               -18.8      -9.2      -3.5      -1.1      -2.3       2.3
  5 C               145.8     123.1     113.0      -9.6      -4.5     -34.1
  6 N               -13.5      -0.9      -2.7     114.8     118.1     136.6
 11 H                -0.2       0.2       0.0      -0.4       0.0      -0.1
 12 H                 0.2       0.2      -0.0       0.0      -0.1       0.0
 13 H               -11.1      -1.4      -2.9      -0.1       0.0       0.1
 14 H                -3.3     -12.8      -3.9       0.0      -0.0       1.1
 15 H                -0.8       0.2      -0.1      -0.9      -5.8      -3.7
 16 H                -0.3      -0.1      -0.1      -2.0      -5.2      -1.1

                    102       103       104       105       106       107   
                   0.00000   0.00000   0.00000   0.00000   0.00000   0.00000
                   0.00005   0.00003   0.00001   0.00000   0.00000   0.00000
                  --------  --------  --------  --------  --------  --------
  3 C                -0.7       0.0      -0.0      -0.0      -0.0       0.0
  4 C                 0.2      -0.2      -0.4      -0.2       0.0      -0.2
  5 C               -15.2      -2.3      -2.0      -2.0      -0.1      -2.2
  6 N               130.4     106.3     110.0     110.4     106.7     105.5
 14 H                -0.2      -0.0       0.0      -0.0      -0.1      -0.0
 15 H                -8.0      -0.8      -2.3      -4.5      -2.6      -2.3
 16 H                -6.3      -2.8      -5.2      -3.7      -3.9      -0.8

                    108       109       110       111       112       113   
                   0.00000   0.00000   0.00000   0.00000   0.00000   0.00000
                   0.00126   0.00019   0.00008   0.00002   0.00342   0.00017
                  --------  --------  --------  --------  --------  --------
  0 C               -39.6      -2.9      -5.6      -5.6     -36.4      -2.8
  1 O                 0.4      -0.2      -0.0      -0.4       0.1      -0.1
  2 N                -0.2      -0.0      -0.1      -0.0      -0.3      -0.1
  7 H               140.4     103.7     106.3     106.2      -0.4      -0.3
  8 H                -0.5      -0.3      -0.3      -0.1     137.4     103.8
  9 H                -0.5      -0.3      -0.3      -0.1      -0.4      -0.4

                    114       115       116       117       118       119   
                   0.00000   0.00000   0.00000   0.00000   0.00000   0.00000
                   0.00012   0.00001   0.00337   0.00017   0.00012   0.00001
                  --------  --------  --------  --------  --------  --------
  0 C                -4.7      -6.7     -36.4      -2.8      -4.7      -6.7
  1 O                -0.0      -0.2       0.1      -0.1      -0.0      -0.2
  2 N                 0.0      -0.0      -0.3      -0.1       0.0      -0.0
  7 H                -0.3      -0.1      -0.4      -0.3      -0.3      -0.1
  8 H               105.4     107.3      -0.4      -0.4      -0.4      -0.2
  9 H                -0.4      -0.2     137.4     103.8     105.3     107.2

                    120       121       122       123       124       125   
                   0.00000   0.00000   0.00000   0.00000   0.00000   0.00000
                   0.00630   0.00013   0.00009   0.00004   0.00477   0.00012
                  --------  --------  --------  --------  --------  --------
  1 O                -0.7      -0.0      -0.1      -0.0      -0.0      -0.0
  2 N                -0.6      -0.1      -0.1      -0.9       0.0      -0.1
  3 C               -40.1      -2.9      -5.3      -6.9       0.1      -0.1
  4 C                -1.2      -0.1      -1.2       0.3     -34.8      -3.8
  5 C                 0.1      -0.0      -0.0      -0.0       0.8       0.0
  6 N                -0.0      -0.0      -0.1      -0.0      -0.3      -0.0
 10 H               143.9     103.3     106.8     107.6      -0.3      -0.0
 11 H                -0.3      -0.0       0.0      -0.0     135.2     104.7
 12 H                 0.1      -0.0      -0.0      -0.0      -0.4      -0.5
 14 H                -1.1      -0.0      -0.0      -0.0      -0.4      -0.1

                    126       127       128       129       130       131   
                   0.00000   0.00000   0.00000   0.00000   0.00000   0.00000
                   0.00010   0.00003   0.00473   0.00012   0.00010   0.00003
                  --------  --------  --------  --------  --------  --------
  2 N                -0.1      -0.0      -1.6      -0.0      -0.0      -0.0
  3 C                -0.3      -0.1       2.3      -0.1      -0.3      -0.2
  4 C                -3.0      -7.9     -36.9      -3.4      -3.0      -7.8
  5 C                -0.2      -0.1       0.1      -0.2      -0.1      -0.1
  6 N                -0.2      -0.0       0.0      -0.2      -0.1      -0.0
 11 H               104.6     108.2      -0.5      -0.5      -0.5      -0.0
 12 H                -0.6       0.0     138.2     104.6     104.1     108.3
 13 H                -0.0      -0.0      -0.4      -0.0      -0.0      -0.0
 15 H                -0.0      -0.0      -1.2      -0.0      -0.0      -0.0

                    132       133       134       135       136       137   
                   0.00000   0.00000   0.00000   0.00000   0.00000   0.00000
                   0.00391   0.00013   0.00011   0.00002   0.00266   0.00014
                  --------  --------  --------  --------  --------  --------
  2 N                -0.1      -0.0      -0.0      -0.0      -0.2      -0.0
  3 C                -1.3      -0.0      -0.2      -0.0      -1.1      -0.0
  4 C                 0.6      -0.0      -0.1      -0.2       1.9       0.1
  5 C               -34.1      -3.0      -3.3      -7.5     -37.9      -3.8
  6 N                 0.3      -0.2      -0.5      -0.4       0.9      -0.2
 10 H                -0.1      -0.0      -0.0      -0.0      -1.1      -0.0
 11 H                -0.0      -0.0      -0.0      -0.0      -0.4      -0.0
 12 H                -0.4      -0.1      -0.0       0.0      -0.0      -0.0
 13 H               136.0     103.9     104.9     108.1      -0.5      -0.5
 14 H                -0.6      -0.5      -0.6      -0.0     138.8     104.6
 15 H                -0.2      -0.1      -0.0      -0.0      -0.0      -0.0
 16 H                -0.2      -0.1      -0.0      -0.0      -0.3      -0.1

                    138       139       140       141       142       143   
                   0.00000   0.00000   0.00000   0.00000   0.00000   0.00000
                   0.00009   0.00003   0.00295   0.00080   0.00038   0.00002
                  --------  --------  --------  --------  --------  --------
  3 C                -0.1       0.0      -0.2      -0.0      -0.0      -0.0
  4 C                -0.3      -0.3      -0.1      -0.0      -0.0      -0.1
  5 C                -3.6      -6.7      -2.9      -0.3      -0.2      -0.0
  6 N                -0.3      -0.6      -8.6      -3.4      -3.2      -5.4
 12 H                -0.0      -0.0      -1.1      -0.1      -0.0      -0.0
 13 H                -0.5      -0.0      -0.1      -0.0      -0.0      -0.0
 14 H               105.1     107.7      -0.0      -0.0      -0.0      -0.0
 15 H                -0.0      -0.0     114.8     104.3     104.1     105.8
 16 H                -0.1      -0.0      -1.7      -0.4      -0.4      -0.3

                    144       145       146       147   
                   0.00000   0.00000   0.00000   0.00000
                   0.00255   0.00078   0.00038   0.00002
                  --------  --------  --------  --------
  4 C                -0.1      -0.0      -0.1       0.0
  5 C                -3.0      -0.4      -0.2      -0.2
  6 N                -8.2      -3.6      -3.3      -5.4
 13 H                -0.2       0.0      -0.0      -0.0
 14 H                -0.2      -0.1      -0.1      -0.0
 15 H                -1.7      -0.4      -0.5      -0.3
 16 H               113.5     104.5     104.2     105.9

Storing NBOs: 6023.nbo
                                    *** NBOs were stored ***

                                *** returned from GENNBO program ***

-------
TIMINGS
-------

Total SCF time: 0 days 0 hours 0 min 5 sec 

Total time                  ....       5.897 sec
Sum of individual times     ....       6.393 sec  (108.4%)

Fock matrix formation       ....       3.760 sec  ( 63.8%)
  Coulomb formation         ....       2.089 sec  ( 55.6% of F)
  Split-RI-J                ....       2.080 sec  ( 55.3% of F)
  XC integration            ....       1.665 sec  ( 44.3% of F)
    Basis function eval.    ....       0.597 sec  ( 35.9% of XC)
    Density eval.           ....       0.304 sec  ( 18.2% of XC)
    XC-Functional eval.     ....       0.116 sec  (  7.0% of XC)
    XC-Potential eval.      ....       0.593 sec  ( 35.6% of XC)
Diagonalization             ....       0.027 sec  (  0.5%)
Density matrix formation    ....       0.003 sec  (  0.1%)
Population analysis         ....       1.475 sec  ( 25.0%)
Initial guess               ....       0.373 sec  (  6.3%)
Orbital Transformation      ....       0.000 sec  (  0.0%)
Orbital Orthonormalization  ....       0.000 sec  (  0.0%)
DIIS solution               ....       0.007 sec  (  0.1%)
SOSCF solution              ....       0.015 sec  (  0.3%)
Grid generation             ....       0.732 sec  ( 12.4%)
           ************************************************************
           *              Shut down parallel processing               *
           ************************************************************

-------------------------   --------------------
FINAL SINGLE POINT ENERGY      -342.417627438239
-------------------------   --------------------


                            ***************************************
                            *     ORCA property calculations      *
                            ***************************************

                                    ---------------------
                                    Active property flags
                                    ---------------------
   (+) Dipole Moment


------------------------------------------------------------------------------
                       ORCA ELECTRIC PROPERTIES CALCULATION
------------------------------------------------------------------------------

Dipole Moment Calculation                       ... on
Quadrupole Moment Calculation                   ... off
Polarizability Calculation                      ... off
GBWName                                         ... 6023.gbw
Electron density file                           ... 6023.scfp.tmp

-------------
DIPOLE MOMENT
-------------
                                X             Y             Z
Electronic contribution:     -2.70012       2.01379       0.31119
Nuclear contribution   :      3.01039      -2.11276       0.04427
                        -----------------------------------------
Total Dipole Moment    :      0.31026      -0.09897       0.35546
                        -----------------------------------------
Magnitude (a.u.)       :      0.48209
Magnitude (Debye)      :      1.22537


Timings for individual modules:

Sum of individual times         ...        7.076 sec (=   0.118 min)
GTO integral calculation        ...        0.475 sec (=   0.008 min)   6.7 %
SCF iterations                  ...        6.601 sec (=   0.110 min)  93.3 %
                             ****ORCA TERMINATED NORMALLY****
TOTAL RUN TIME: 0 days 0 hours 0 minutes 7 seconds 473 msec
