
                                 *****************
                                 * O   R   C   A *
                                 *****************

           --- An Ab Initio, DFT and Semiempirical electronic structure package ---

                  #######################################################
                  #                        -***-                        #
                  #  Department of molecular theory and spectroscopy    #
                  #              Directorship: Frank Neese              #
                  # Max Planck Institute for Chemical Energy Conversion #
                  #                  D-45470 Muelheim/Ruhr              #
                  #                       Germany                       #
                  #                                                     #
                  #                  All rights reserved                #
                  #                        -***-                        #
                  #######################################################


                         Program Version 3.0.3 - RELEASE   -


 With contributions from (in alphabetic order):
   Ute Becker             : Parallelization
   Dmytro Bykov           : SCF Hessian
   Dmitry Ganyushin       : Spin-Orbit,Spin-Spin,Magnetic field MRCI
   Andreas Hansen         : Spin unrestricted coupled pair/coupled cluster methods
   Dimitrios Liakos       : Extrapolation schemes; parallel MDCI
   Robert Izsak           : Overlap fitted RIJCOSX, COSX-SCS-MP3
   Christian Kollmar      : KDIIS, OOCD, Brueckner-CCSD(T), CCSD density
   Simone Kossmann        : Meta GGA functionals, TD-DFT gradient, OOMP2, MP2 Hessian
   Taras Petrenko         : DFT Hessian,TD-DFT gradient, ASA and ECA modules, normal mode analysis, Resonance Raman, ABS, FL, XAS/XES, NRVS
   Christoph Reimann      : Effective Core Potentials
   Michael Roemelt        : Restricted open shell CIS
   Christoph Riplinger    : Improved optimizer, TS searches, QM/MM, DLPNO-CCSD
   Barbara Sandhoefer     : DKH picture change effects
   Igor Schapiro          : Molecular dynamics
   Kantharuban Sivalingam : CASSCF convergence, NEVPT2
   Boris Wezisla          : Elementary symmetry handling
   Frank Wennmohs         : Technical directorship


 We gratefully acknowledge several colleagues who have allowed us to
 interface, adapt or use parts of their codes:
   Stefan Grimme, W. Hujo, H. Kruse, T. Risthaus : VdW corrections, initial TS optimization,
                                                   DFT functionals, gCP
   Ed Valeev                                     : LibInt (2-el integral package), F12 methods
   Garnet Chan, S. Sharma, R. Olivares           : DMRG
   Ulf Ekstrom                                   : XCFun DFT Library
   Mihaly Kallay                                 : mrcc  (arbitrary order and MRCC methods)
   Andreas Klamt, Michael Diedenhofen            : otool_cosmo (COSMO solvation model)
   Frank Weinhold                                : gennbo (NPA and NBO analysis)
   Christopher J. Cramer and Donald G. Truhlar   : smd solvation model


 Your calculation uses the libint2 library for the computation of 2-el integrals
 For citations please refer to: http://libint.valeyev.net

 This ORCA versions uses:
   CBLAS   interface :  Fast vector & matrix operations
   LAPACKE interface :  Fast linear algebra routines
   SCALAPACK package :  Parallel linear algebra routines


Your calculation utilizes the basis: Ahlrichs-VDZ
Cite in your paper:
H - Kr: A. Schaefer, H. Horn and R. Ahlrichs, J. Chem. Phys. 97, 2571 (1992).

Your calculation utilizes the basis: Ahlrichs SVPalls1+f
Cite in your paper:
Rb - Xe: A. Schaefer, C. Huber and R. Ahlrichs, J. Chem. Phys. 100, 5829 (1994).

================================================================================
                                        WARNINGS
                       Please study these warnings very carefully!
================================================================================
Now building the actual basis set


INFO   : the flag for use of LIBINT has been found!

================================================================================
                                       INPUT FILE
================================================================================
NAME = 6063.inp
|  1> ! RI PBE def2-SVP def2-SVP/J NBO PAL2
|  2> % maxcore 2000
|  3> % output
|  4>     # printlevel mini
|  5>     print[ P_Basis ] 0
|  6>     print[ P_SCFInfo ] 1
|  7>     print[ P_SCFIterInfo ] 1
|  8>     print[ P_OrbEn ] 0
|  9>     print[ P_Cartesian ] 0
| 10> end
| 11> *xyz 0 1
| 12>  N        1.3154900000    -0.0847420000     0.3563490000 
| 13>  C        2.6948320000     0.0047490000    -0.0185310000 
| 14>  C        3.2571020000    -0.5631580000    -1.2864470000 
| 15>  C        3.0926790000     0.9252710000    -1.1407620000 
| 16>  C        4.2537960000     1.8128540000    -0.9873270000 
| 17>  N        5.4354020000     1.3569780000    -1.0167300000 
| 18>  O        6.3737970000     2.3518810000    -0.7934750000 
| 19>  H        1.1189160000    -0.9920040000     0.7634060000 
| 20>  H        0.7160800000     0.0115680000    -0.4544100000 
| 21>  H        3.3646710000     0.0150370000     0.8350100000 
| 22>  H        2.5675810000    -1.0654020000    -1.9551870000 
| 23>  H        4.2695250000    -0.9463510000    -1.2865000000 
| 24>  H        2.2586650000     1.3781740000    -1.6691840000 
| 25>  H        4.0813690000     2.8779180000    -0.8184020000 
| 26>  H        7.2083960000     1.8808470000    -0.8627190000 
| 27> *
| 28> 
| 29>                          ****END OF INPUT****
================================================================================

                       ****************************
                       * Single Point Calculation *
                       ****************************

--------------------------------
INTERNAL COORDINATES (ANGSTROEM)
--------------------------------
 N      0   0   0   0.000000     0.000     0.000
 C      1   0   0   1.432176     0.000     0.000
 C      2   1   0   1.498758   123.992     0.000
 C      3   2   1   1.504553    60.147   106.939
 C      4   3   2   1.469537   121.418   108.815
 N      5   4   3   1.266839   121.144     2.341
 O      6   5   4   1.385734   111.686   182.705
 H      1   2   3   1.013638   110.354    81.035
 H      1   2   3   1.012866   110.763   322.775
 H      2   1   3   1.085045   112.908   210.933
 H      3   2   1   1.083929   117.313     0.335
 H      3   2   1   1.082514   119.015   213.089
 H      4   3   2   1.086246   116.697   255.871
 H      5   4   3   1.092075   118.715   184.019
 H      7   6   5   0.960845   102.981   181.287

---------------------------
INTERNAL COORDINATES (A.U.)
---------------------------
 N      0   0   0   0.000000     0.000     0.000
 C      1   0   0   2.706420     0.000     0.000
 C      2   1   0   2.832243   123.992     0.000
 C      3   2   1   2.843193    60.147   106.939
 C      4   3   2   2.777022   121.418   108.815
 N      5   4   3   2.393978   121.144     2.341
 O      6   5   4   2.618659   111.686   182.705
 H      1   2   3   1.915497   110.354    81.035
 H      1   2   3   1.914040   110.763   322.775
 H      2   1   3   2.050438   112.908   210.933
 H      3   2   1   2.048328   117.313     0.335
 H      3   2   1   2.045656   119.015   213.089
 H      4   3   2   2.052707   116.697   255.871
 H      5   4   3   2.063723   118.715   184.019
 H      7   6   5   1.815734   102.981   181.287



           ************************************************************
           *        Program running with 2 parallel MPI-processes     *
           *              working on a common directory               *
           ************************************************************
------------------------------------------------------------------------------
                           ORCA GTO INTEGRAL CALCULATION
                           -- RI-GTO INTEGRALS CHOSEN --
------------------------------------------------------------------------------

                         BASIS SET STATISTICS AND STARTUP INFO

Gaussian basis set:
 # of primitive gaussian shells          ...  124
 # of primitive gaussian functions       ...  224
 # of contracted shells                  ...   66
 # of contracted basis functions         ...  138
 Highest angular momentum                ...    2
 Maximum contraction depth               ...    5
Auxiliary gaussian basis set:
 # of primitive gaussian shells          ...  232
 # of primitive gaussian functions       ...  618
 # of contracted shells                  ...  145
 # of contracted aux-basis functions     ...  431
 Highest angular momentum                ...    4
 Maximum contraction depth               ...    7
Ratio of auxiliary to basis functions    ...  3.12
Integral package used                  ... LIBINT
 One Electron integrals                  ... done
 Ordering auxiliary basis shells         ... done
 Integral threshhold             Thresh  ...  1.000e-10
 Primitive cut-off               TCut    ...  1.000e-11
 Pre-screening matrix                    ... done
 Shell pair data                         ... 
 Ordering of the shell pairs             ... done (   0.000 sec) 2080 of 2211 pairs
 Determination of significant pairs      ... done (   0.000 sec)
 Creation of shell pair data             ... done (   0.000 sec)
 Storage of shell pair data              ... done (   0.000 sec)
 Shell pair data done in (   0.001 sec)
 Computing two index integrals           ... done
 Cholesky decomposition of the V-matrix  ... done


Timings:
 Total evaluation time                   ...   0.158 sec (  0.003 min)
 One electron matrix time                ...   0.019 sec (  0.000 min) = 11.8%
 Schwartz matrix evaluation time         ...   0.073 sec (  0.001 min) = 46.1%
 Two index repulsion integral time       ...   0.004 sec (  0.000 min) =  2.3%
 Cholesky decomposition of V             ...   0.003 sec (  0.000 min) =  2.0%
 Three index repulsion integral time     ...   0.000 sec (  0.000 min) =  0.0%

           ************************************************************
           *              Shut down parallel processing               *
           ************************************************************


           ************************************************************
           *        Program running with 2 parallel MPI-processes     *
           *              working on a common directory               *
           ************************************************************
-------------------------------------------------------------------------------
                                 ORCA SCF
-------------------------------------------------------------------------------

------------
SCF SETTINGS
------------
Hamiltonian:
 Density Functional     Method          .... DFT(GTOs)
 Exchange Functional    Exchange        .... PBE
   PBE kappa parameter  XKappa          ....  0.804000
 Correlation Functional Correlation     .... PBE
 LDA part of GGA corr.  LDAOpt          .... PW91-LDA
 Gradients option       PostSCFGGA      .... off
   NL short-range parameter             ....  6.400000
 RI-approximation to the Coulomb term is turned on
   Number of auxiliary basis functions  .... 431


General Settings:
 Integral files         IntName         .... 6063
 Hartree-Fock type      HFTyp           .... RHF
 Total Charge           Charge          ....    0
 Multiplicity           Mult            ....    1
 Number of Electrons    NEL             ....   54
 Basis Dimension        Dim             ....  138
 Nuclear Repulsion      ENuc            ....    295.0018242380 Eh

Convergence Acceleration:
 DIIS                   CNVDIIS         .... on
   Start iteration      DIISMaxIt       ....    12
   Startup error        DIISStart       ....  0.200000
   # of expansion vecs  DIISMaxEq       ....     5
   Bias factor          DIISBfac        ....   1.050
   Max. coefficient     DIISMaxC        ....  10.000
 Newton-Raphson         CNVNR           .... off
 SOSCF                  CNVSOSCF        .... on
   Start iteration      SOSCFMaxIt      ....   150
   Startup grad/error   SOSCFStart      ....  0.003300
 Level Shifting         CNVShift        .... on
   Level shift para.    LevelShift      ....    0.2500
   Turn off err/grad.   ShiftErr        ....    0.0010
 Zerner damping         CNVZerner       .... off
 Static damping         CNVDamp         .... on
   Fraction old density DampFac         ....    0.7000
   Max. Damping (<1)    DampMax         ....    0.9800
   Min. Damping (>=0)   DampMin         ....    0.0000
   Turn off err/grad.   DampErr         ....    0.1000
 Fernandez-Rico         CNVRico         .... off

SCF Procedure:
 Maximum # iterations   MaxIter         ....   125
 SCF integral mode      SCFMode         .... Direct
   Integral package                     .... LIBINT
 Reset frequeny         DirectResetFreq ....    20
 Integral Threshold     Thresh          ....  1.000e-10 Eh
 Primitive CutOff       TCut            ....  1.000e-11 Eh

Convergence Tolerance:
 Convergence Check Mode ConvCheckMode   .... Total+1el-Energy
 Energy Change          TolE            ....  1.000e-06 Eh
 1-El. energy change                    ....  1.000e-03 Eh
 Orbital Gradient       TolG            ....  5.000e-05
 Orbital Rotation angle TolX            ....  5.000e-05
 DIIS Error             TolErr          ....  1.000e-06


Diagonalization of the overlap matrix:
Smallest eigenvalue                        ... 1.352e-03
Time for diagonalization                   ...    0.011 sec
Threshold for overlap eigenvalues          ... 1.000e-08
Number of eigenvalues below threshold      ... 0
Time for construction of square roots      ...    0.003 sec
Total time needed                          ...    0.014 sec

-------------------
DFT GRID GENERATION
-------------------

General Integration Accuracy     IntAcc      ...  4.340
Radial Grid Type                 RadialGrid  ... Gauss-Chebyshev
Angular Grid (max. acc.)         AngularGrid ... Lebedev-110
Angular grid pruning method      GridPruning ... 3 (G Style)
Weight generation scheme         WeightScheme... Becke
Basis function cutoff            BFCut       ...    1.0000e-10
Integration weight cutoff        WCut        ...    1.0000e-14
Grids for H and He will be reduced by one unit

# of grid points (after initial pruning)     ...  18096 (   0.0 sec)
# of grid points (after weights+screening)   ...  16912 (   0.1 sec)
nearest neighbour list constructed           ...    0.0 sec
Grid point re-assignment to atoms done       ...    0.0 sec
Grid point division into batches done        ...    0.0 sec
Reduced shell lists constructed in    0.1 sec

Total number of grid points                  ...    16912
Total number of batches                      ...      273
Average number of points per batch           ...       61
Average number of grid points per atom       ...     1127
Average number of shells per batch           ...    49.69 (75.29%)
Average number of basis functions per batch  ...   102.01 (73.92%)
Average number of large shells per batch     ...    39.86 (80.21%)
Average number of large basis fcns per batch ...    81.22 (79.62%)
Maximum spatial batch extension              ...  16.06, 17.46, 18.98 au
Average spatial batch extension              ...   1.25,  1.43,  1.51 au

Time for grid setup =    0.134 sec

------------------------------
INITIAL GUESS: MODEL POTENTIAL
------------------------------
Loading Hartree-Fock densities                     ... done
Calculating cut-offs                               ... done
Setting up the integral package                    ... done
Initializing the effective Hamiltonian             ... done
Starting the Coulomb interaction                   ... done (   0.0 sec)
Reading the grid                                   ... done
Mapping shells                                     ... done
Starting the XC term evaluation                    ... done (   0.1 sec)
  promolecular density results
     # of electrons  =     54.005266695
     EX              =    -44.055036016
     EC              =     -1.790482119
     EX+EC           =    -45.845518136
Transforming the Hamiltonian                       ... done (   0.0 sec)
Diagonalizing the Hamiltonian                      ... done (   0.0 sec)
Back transforming the eigenvectors                 ... done (   0.0 sec)
Now organizing SCF variables                       ... done
                      ------------------
                      INITIAL GUESS DONE (   0.3 sec)
                      ------------------
--------------
SCF ITERATIONS
--------------
ITER       Energy         Delta-E        Max-DP      RMS-DP      [F,P]     Damp
               ***  Starting incremental Fock matrix formation  ***
  0   -341.0376150555   0.000000000000 0.08637863  0.00258453  0.2272795 0.7000
  1   -341.1201021643  -0.082487108822 0.04598274  0.00179111  0.0936886 0.7000
                               ***Turning on DIIS***
  2   -341.1492774012  -0.029175236875 0.04957220  0.00281011  0.0200041 0.0000
  3   -341.1935609781  -0.044283576920 0.03363470  0.00120878  0.0579181 0.0000
  4   -341.2058959288  -0.012334950710 0.00841607  0.00038928  0.0089496 0.0000
  5   -341.2064428206  -0.000546891772 0.00269767  0.00013545  0.0037893 0.0000
                      *** Initiating the SOSCF procedure ***
                           *** Shutting down DIIS ***
                      *** Re-Reading the Fockian *** 
                      *** Removing any level shift *** 
ITER      Energy       Delta-E        Grad      Rot      Max-DP    RMS-DP
  6   -341.20650811  -0.0000652930  0.000252  0.000252  0.001561  0.000051
               *** Restarting incremental Fock matrix formation ***
  7   -341.20651161  -0.0000034991  0.000175  0.000551  0.001095  0.000041
  8   -341.20650991   0.0000017006  0.000358  0.000340  0.000744  0.000021
  9   -341.20651279  -0.0000028760  0.000050  0.000116  0.000318  0.000010
 10   -341.20651265   0.0000001376  0.000074  0.000132  0.000221  0.000006
 11   -341.20651285  -0.0000002036  0.000023  0.000103  0.000143  0.000004
                 **** Energy Check signals convergence ****
              ***Rediagonalizing the Fockian in SOSCF/NRSCF***

               *****************************************************
               *                     SUCCESS                       *
               *           SCF CONVERGED AFTER  12 CYCLES          *
               *****************************************************

Setting up the final grid:

General Integration Accuracy     IntAcc      ...  4.670
Radial Grid Type                 RadialGrid  ... Gauss-Chebyshev
Angular Grid (max. acc.)         AngularGrid ... Lebedev-302
Angular grid pruning method      GridPruning ... 3 (G Style)
Weight generation scheme         WeightScheme... Becke
Basis function cutoff            BFCut       ...    1.0000e-10
Integration weight cutoff        WCut        ...    1.0000e-14
Grids for H and He will be reduced by one unit

# of grid points (after initial pruning)     ...  70636 (   0.0 sec)
# of grid points (after weights+screening)   ...  65117 (   0.1 sec)
nearest neighbour list constructed           ...    0.0 sec
Grid point re-assignment to atoms done       ...    0.0 sec
Grid point division into batches done        ...    0.2 sec
Reduced shell lists constructed in    0.4 sec

Total number of grid points                  ...    65117
Total number of batches                      ...     1026
Average number of points per batch           ...       63
Average number of grid points per atom       ...     4341
Average number of shells per batch           ...    46.08 (69.82%)
Average number of basis functions per batch  ...    94.26 (68.31%)
Average number of large shells per batch     ...    36.28 (78.74%)
Average number of large basis fcns per batch ...    73.37 (77.83%)
Maximum spatial batch extension              ...  12.79, 17.41, 16.24 au
Average spatial batch extension              ...   0.91,  0.99,  1.02 au

Final grid set up in    0.5 sec
Final integration                            ... done (   0.4 sec)
Change in XC energy                          ...     0.000511660
Integrated number of electrons               ...    54.000131696
Previous integrated no of electrons          ...    54.003012279

----------------
TOTAL SCF ENERGY
----------------

Total Energy       :         -341.20600116 Eh           -9284.68732 eV

Components:
Nuclear Repulsion  :          295.00182424 Eh            8027.40774 eV
Electronic Energy  :         -636.20782540 Eh          -17312.09506 eV

One Electron Energy:        -1047.65652100 Eh          -28508.18326 eV
Two Electron Energy:          411.44869560 Eh           11196.08821 eV

Virial components:
Potential Energy   :         -679.56269797 Eh          -18491.84112 eV
Kinetic Energy     :          338.35669680 Eh            9207.15380 eV
Virial Ratio       :            2.00842101


DFT components:
N(Alpha)           :       27.000065847771 electrons
N(Beta)            :       27.000065847771 electrons
N(Total)           :       54.000131695542 electrons
E(X)               :      -44.855852668857 Eh       
E(C)               :       -1.812299449156 Eh       
E(XC)              :      -46.668152118013 Eh       

---------------
SCF CONVERGENCE
---------------

  Last Energy change         ...    3.1495e-08  Tolerance :   1.0000e-06
  Last MAX-Density change    ...    1.0941e-04  Tolerance :   1.0000e-05
  Last RMS-Density change    ...    2.4856e-06  Tolerance :   1.0000e-06
  Last Orbital Gradient      ...    5.5157e-05  Tolerance :   5.0000e-05
  Last Orbital Rotation      ...    7.2894e-05  Tolerance :   5.0000e-05

             **** THE GBW FILE WAS UPDATED (6063.gbw) ****
             **** DENSITY FILE WAS UPDATED (6063.scfp.tmp) ****
             **** ENERGY FILE WAS UPDATED (6063.en.tmp) ****

                    ********************************
                    * MULLIKEN POPULATION ANALYSIS *
                    ********************************

-----------------------
MULLIKEN ATOMIC CHARGES
-----------------------
   0 N :   -0.119799
   1 C :   -0.074375
   2 C :    0.044187
   3 C :   -0.079240
   4 C :    0.017261
   5 N :   -0.052431
   6 O :   -0.177599
   7 H :    0.095948
   8 H :    0.078904
   9 H :    0.032629
  10 H :    0.012639
  11 H :    0.035968
  12 H :    0.019800
  13 H :   -0.002524
  14 H :    0.168631
Sum of atomic charges:   -0.0000000

--------------------------------
MULLIKEN REDUCED ORBITAL CHARGES
--------------------------------
  0 N s       :     3.372083  s :     3.372083
      pz      :     1.307243  p :     3.728923
      px      :     1.056434
      py      :     1.365246
      dz2     :     0.003355  d :     0.018792
      dxz     :     0.005614
      dyz     :     0.001438
      dx2y2   :     0.005893
      dxy     :     0.002492
  1 C s       :     3.117262  s :     3.117262
      pz      :     0.948811  p :     2.896390
      px      :     0.920003
      py      :     1.027576
      dz2     :     0.011095  d :     0.060724
      dxz     :     0.017411
      dyz     :     0.010160
      dx2y2   :     0.011244
      dxy     :     0.010813
  2 C s       :     3.009845  s :     3.009845
      pz      :     1.004165  p :     2.913626
      px      :     0.960492
      py      :     0.948969
      dz2     :     0.006513  d :     0.032342
      dxz     :     0.004975
      dyz     :     0.007963
      dx2y2   :     0.007059
      dxy     :     0.005831
  3 C s       :     3.092016  s :     3.092016
      pz      :     1.043880  p :     2.945684
      px      :     1.001450
      py      :     0.900354
      dz2     :     0.007011  d :     0.041541
      dxz     :     0.006039
      dyz     :     0.009724
      dx2y2   :     0.008878
      dxy     :     0.009888
  4 C s       :     3.155870  s :     3.155870
      pz      :     0.969154  p :     2.778769
      px      :     0.900321
      py      :     0.909294
      dz2     :     0.003095  d :     0.048099
      dxz     :     0.011978
      dyz     :     0.002576
      dx2y2   :     0.015965
      dxy     :     0.014486
  5 N s       :     3.608761  s :     3.608761
      pz      :     1.158335  p :     3.399073
      px      :     0.992481
      py      :     1.248257
      dz2     :     0.004970  d :     0.044597
      dxz     :     0.009860
      dyz     :     0.005111
      dx2y2   :     0.008634
      dxy     :     0.016022
  6 O s       :     3.743730  s :     3.743730
      pz      :     1.838076  p :     4.416276
      px      :     1.141191
      py      :     1.437010
      dz2     :     0.002463  d :     0.017593
      dxz     :     0.001484
      dyz     :     0.002445
      dx2y2   :     0.003731
      dxy     :     0.007470
  7 H s       :     0.857365  s :     0.857365
      pz      :     0.016137  p :     0.046687
      px      :     0.009601
      py      :     0.020949
  8 H s       :     0.873969  s :     0.873969
      pz      :     0.018751  p :     0.047126
      px      :     0.014638
      py      :     0.013737
  9 H s       :     0.945903  s :     0.945903
      pz      :     0.009634  p :     0.021467
      px      :     0.006534
      py      :     0.005299
 10 H s       :     0.963802  s :     0.963802
      pz      :     0.008717  p :     0.023560
      px      :     0.008079
      py      :     0.006764
 11 H s       :     0.939913  s :     0.939913
      pz      :     0.004822  p :     0.024120
      px      :     0.013652
      py      :     0.005645
 12 H s       :     0.957227  s :     0.957227
      pz      :     0.007959  p :     0.022972
      px      :     0.009815
      py      :     0.005199
 13 H s       :     0.980928  s :     0.980928
      pz      :     0.004559  p :     0.021596
      px      :     0.002856
      py      :     0.014181
 14 H s       :     0.764533  s :     0.764533
      pz      :     0.019407  p :     0.066836
      px      :     0.029281
      py      :     0.018147


                     *******************************
                     * LOEWDIN POPULATION ANALYSIS *
                     *******************************

----------------------
LOEWDIN ATOMIC CHARGES
----------------------
   0 N :   -0.083216
   1 C :    0.010965
   2 C :   -0.056392
   3 C :   -0.059601
   4 C :   -0.030963
   5 N :   -0.024206
   6 O :   -0.057033
   7 H :    0.058220
   8 H :    0.052140
   9 H :    0.026254
  10 H :    0.023399
  11 H :    0.028527
  12 H :    0.031600
  13 H :    0.008408
  14 H :    0.071898

-------------------------------
LOEWDIN REDUCED ORBITAL CHARGES
-------------------------------
  0 N s       :     3.117286  s :     3.117286
      pz      :     1.371966  p :     3.920998
      px      :     1.142854
      py      :     1.406178
      dz2     :     0.006908  d :     0.044933
      dxz     :     0.014078
      dyz     :     0.003482
      dx2y2   :     0.014914
      dxy     :     0.005552
  1 C s       :     2.814819  s :     2.814819
      pz      :     0.995053  p :     3.029235
      px      :     0.959575
      py      :     1.074607
      dz2     :     0.026902  d :     0.144981
      dxz     :     0.044770
      dyz     :     0.025451
      dx2y2   :     0.026307
      dxy     :     0.021549
  2 C s       :     2.830525  s :     2.830525
      pz      :     1.066112  p :     3.137888
      px      :     1.068596
      py      :     1.003180
      dz2     :     0.016938  d :     0.087979
      dxz     :     0.014581
      dyz     :     0.019596
      dx2y2   :     0.020133
      dxy     :     0.016730
  3 C s       :     2.820802  s :     2.820802
      pz      :     1.084757  p :     3.129565
      px      :     1.056424
      py      :     0.988384
      dz2     :     0.016522  d :     0.109234
      dxz     :     0.016117
      dyz     :     0.023846
      dx2y2   :     0.023979
      dxy     :     0.028770
  4 C s       :     2.881323  s :     2.881323
      pz      :     0.952345  p :     3.022844
      px      :     1.033113
      py      :     1.037386
      dz2     :     0.008485  d :     0.126796
      dxz     :     0.023927
      dyz     :     0.004900
      dx2y2   :     0.044758
      dxy     :     0.044725
  5 N s       :     3.310369  s :     3.310369
      pz      :     1.152660  p :     3.626089
      px      :     1.106551
      py      :     1.366878
      dz2     :     0.010081  d :     0.087748
      dxz     :     0.018502
      dyz     :     0.006918
      dx2y2   :     0.018049
      dxy     :     0.034199
  6 O s       :     3.483231  s :     3.483231
      pz      :     1.806926  p :     4.540798
      px      :     1.206666
      py      :     1.527206
      dz2     :     0.004796  d :     0.033004
      dxz     :     0.002453
      dyz     :     0.002896
      dx2y2   :     0.007022
      dxy     :     0.015837
  7 H s       :     0.819185  s :     0.819185
      pz      :     0.036643  p :     0.122595
      px      :     0.022300
      py      :     0.063653
  8 H s       :     0.824864  s :     0.824864
      pz      :     0.054641  p :     0.122996
      px      :     0.036957
      py      :     0.031398
  9 H s       :     0.904277  s :     0.904277
      pz      :     0.030397  p :     0.069469
      px      :     0.022385
      py      :     0.016688
 10 H s       :     0.904834  s :     0.904834
      pz      :     0.027422  p :     0.071767
      px      :     0.024179
      py      :     0.020166
 11 H s       :     0.897014  s :     0.897014
      pz      :     0.015371  p :     0.074458
      px      :     0.041932
      py      :     0.017156
 12 H s       :     0.897114  s :     0.897114
      pz      :     0.024139  p :     0.071286
      px      :     0.029707
      py      :     0.017439
 13 H s       :     0.920486  s :     0.920486
      pz      :     0.014817  p :     0.071106
      px      :     0.011460
      py      :     0.044828
 14 H s       :     0.751617  s :     0.751617
      pz      :     0.051996  p :     0.176485
      px      :     0.073101
      py      :     0.051388


                      *****************************
                      * MAYER POPULATION ANALYSIS *
                      *****************************

  NA   - Mulliken gross atomic population
  ZA   - Total nuclear charge
  QA   - Mulliken gross atomic charge
  VA   - Mayer's total valence
  BVA  - Mayer's bonded valence
  FA   - Mayer's free valence

  ATOM       NA         ZA         QA         VA         BVA        FA
  0 N      7.1198     7.0000    -0.1198     3.0973     3.0973     0.0000
  1 C      6.0744     6.0000    -0.0744     4.1367     4.1367     0.0000
  2 C      5.9558     6.0000     0.0442     3.8383     3.8383     0.0000
  3 C      6.0792     6.0000    -0.0792     3.9227     3.9227     0.0000
  4 C      5.9827     6.0000     0.0173     4.0616     4.0616     0.0000
  5 N      7.0524     7.0000    -0.0524     3.0169     3.0169    -0.0000
  6 O      8.1776     8.0000    -0.1776     2.1423     2.1423    -0.0000
  7 H      0.9041     1.0000     0.0959     0.9959     0.9959     0.0000
  8 H      0.9211     1.0000     0.0789     1.0105     1.0105    -0.0000
  9 H      0.9674     1.0000     0.0326     0.9979     0.9979     0.0000
 10 H      0.9874     1.0000     0.0126     0.9977     0.9977    -0.0000
 11 H      0.9640     1.0000     0.0360     1.0126     1.0126     0.0000
 12 H      0.9802     1.0000     0.0198     0.9908     0.9908    -0.0000
 13 H      1.0025     1.0000    -0.0025     1.0092     1.0092     0.0000
 14 H      0.8314     1.0000     0.1686     1.0204     1.0204    -0.0000

  Mayer bond orders larger than 0.1
B(  0-N ,  1-C ) :   1.1430 B(  0-N ,  7-H ) :   0.9648 B(  0-N ,  8-H ) :   0.9564 
B(  1-C ,  2-C ) :   0.9846 B(  1-C ,  3-C ) :   0.9220 B(  1-C ,  9-H ) :   0.9367 
B(  2-C ,  3-C ) :   0.9764 B(  2-C , 10-H ) :   0.9273 B(  2-C , 11-H ) :   0.9176 
B(  3-C ,  4-C ) :   1.0631 B(  3-C , 12-H ) :   0.9268 B(  4-C ,  5-N ) :   1.8972 
B(  4-C ,  6-O ) :   0.1094 B(  4-C , 13-H ) :   0.9451 B(  5-N ,  6-O ) :   0.9859 
B(  6-O , 14-H ) :   0.9768 


 *********************************** NBO 6.0 ***********************************
             N A T U R A L   A T O M I C   O R B I T A L   A N D
          N A T U R A L   B O N D   O R B I T A L   A N A L Y S I S
 ***************************** Kiya KiyaLu (100703) ****************************
  (c) Copyright 1996-2015 Board of Regents of the University of Wisconsin System
      on behalf of the Theoretical Chemistry Institute.  All rights reserved.

          Cite this program as:

          NBO 6.0.  E. D. Glendening, J. K. Badenhoop, A. E. Reed,
          J. E. Carpenter, J. A. Bohmann, C. M. Morales, C. R. Landis,
          and F. Weinhold (Theoretical Chemistry Institute, University
          of Wisconsin, Madison, WI, 2013); http://nbo6.chem.wisc.edu/

       /NPA    / : Natural Population Analysis
       /NBO    / : Natural Bond Orbital Analysis
       /AONBO  / : Write the AO to NBO transformation to lfn77
       /FILE   / : Set to 6063

 Filename set to 6063

 Job title:  *** NBO job generated by orca_scf

 Warning: MOs are non-orthogonal; program will continue

 Warning: -1807.04315 electrons reside outside the linearly independent MO space


 NATURAL POPULATIONS:  Natural atomic orbital occupancies

  NAO Atom No lang   Type(AO)    Occupancy      Energy
 -------------------------------------------------------
   1    N  1  s      Cor( 1s)     1.99942     -13.83260
   2    N  1  s      Val( 2s)     1.39518      -0.48575
   3    N  1  s      Ryd( 3s)     0.00044       1.08621
   4    N  1  px     Val( 2p)     1.30152      -0.17263
   5    N  1  px     Ryd( 3p)     0.00232       0.85724
   6    N  1  py     Val( 2p)     1.58293      -0.16811
   7    N  1  py     Ryd( 3p)     0.00406       0.88302
   8    N  1  pz     Val( 2p)     1.55916      -0.17095
   9    N  1  pz     Ryd( 3p)     0.00402       0.92194
  10    N  1  dxy    Ryd( 3d)     0.00053       2.36058
  11    N  1  dxz    Ryd( 3d)     0.00096       2.64871
  12    N  1  dyz    Ryd( 3d)     0.00106       2.45590
  13    N  1  dx2y2  Ryd( 3d)     0.00130       2.72137
  14    N  1  dz2    Ryd( 3d)     0.00101       2.52180

  15    C  2  s      Cor( 1s)     1.99894      -9.81211
  16    C  2  s      Val( 2s)     0.88719      -0.15675
  17    C  2  s      Ryd( 3s)     0.00290       0.71872
  18    C  2  px     Val( 2p)     0.94322      -0.05440
  19    C  2  px     Ryd( 3p)     0.00374       0.64271
  20    C  2  py     Val( 2p)     1.09358      -0.08567
  21    C  2  py     Ryd( 3p)     0.00086       0.52962
  22    C  2  pz     Val( 2p)     1.06918      -0.06334
  23    C  2  pz     Ryd( 3p)     0.00621       0.65133
  24    C  2  dxy    Ryd( 3d)     0.00100       1.97156
  25    C  2  dxz    Ryd( 3d)     0.00164       2.37233
  26    C  2  dyz    Ryd( 3d)     0.00102       2.13247
  27    C  2  dx2y2  Ryd( 3d)     0.00112       2.10421
  28    C  2  dz2    Ryd( 3d)     0.00124       2.14841

  29    C  3  s      Cor( 1s)     1.99904      -9.77108
  30    C  3  s      Val( 2s)     1.01188      -0.18374
  31    C  3  s      Ryd( 3s)     0.00119       0.72899
  32    C  3  px     Val( 2p)     1.23677      -0.05545
  33    C  3  px     Ryd( 3p)     0.00394       0.77281
  34    C  3  py     Val( 2p)     1.06251      -0.06577
  35    C  3  py     Ryd( 3p)     0.00335       0.49537
  36    C  3  pz     Val( 2p)     1.13604      -0.06973
  37    C  3  pz     Ryd( 3p)     0.00214       0.52935
  38    C  3  dxy    Ryd( 3d)     0.00051       2.20939
  39    C  3  dxz    Ryd( 3d)     0.00055       2.18298
  40    C  3  dyz    Ryd( 3d)     0.00107       2.04893
  41    C  3  dx2y2  Ryd( 3d)     0.00088       2.26680
  42    C  3  dz2    Ryd( 3d)     0.00069       2.15155

  43    C  4  s      Cor( 1s)     1.99890      -9.78551
  44    C  4  s      Val( 2s)     0.92575      -0.16382
  45    C  4  s      Ryd( 3s)     0.00223       0.75215
  46    C  4  px     Val( 2p)     1.16826      -0.07356
  47    C  4  px     Ryd( 3p)     0.00433       0.75562
  48    C  4  py     Val( 2p)     1.04066      -0.07875
  49    C  4  py     Ryd( 3p)     0.00557       0.64927
  50    C  4  pz     Val( 2p)     1.15382      -0.08492
  51    C  4  pz     Ryd( 3p)     0.00131       0.60299
  52    C  4  dxy    Ryd( 3d)     0.00081       2.27710
  53    C  4  dxz    Ryd( 3d)     0.00059       2.12262
  54    C  4  dyz    Ryd( 3d)     0.00104       2.10291
  55    C  4  dx2y2  Ryd( 3d)     0.00087       2.22184
  56    C  4  dz2    Ryd( 3d)     0.00081       2.06538

  57    C  5  s      Cor( 1s)     1.99913      -9.79285
  58    C  5  s      Val( 2s)     0.91062      -0.13794
  59    C  5  s      Ryd( 3s)     0.00789       0.47529
  60    C  5  px     Val( 2p)     0.93082      -0.01530
  61    C  5  px     Ryd( 3p)     0.00996       0.56505
  62    C  5  py     Val( 2p)     1.13779      -0.04232
  63    C  5  py     Ryd( 3p)     0.00590       0.82237
  64    C  5  pz     Val( 2p)     0.95938      -0.11064
  65    C  5  pz     Ryd( 3p)     0.00349       0.51362
  66    C  5  dxy    Ryd( 3d)     0.00125       2.35638
  67    C  5  dxz    Ryd( 3d)     0.00147       1.94221
  68    C  5  dyz    Ryd( 3d)     0.00036       1.89123
  69    C  5  dx2y2  Ryd( 3d)     0.00125       2.42104
  70    C  5  dz2    Ryd( 3d)     0.00051       2.10825

  71    N  6  s      Cor( 1s)     1.99917     -13.86706
  72    N  6  s      Val( 2s)     1.44197      -0.48313
  73    N  6  s      Ryd( 3s)     0.00583       1.02808
  74    N  6  px     Val( 2p)     1.14433      -0.17398
  75    N  6  px     Ryd( 3p)     0.00410       0.87643
  76    N  6  py     Val( 2p)     1.38593      -0.17090
  77    N  6  py     Ryd( 3p)     0.00481       0.93451
  78    N  6  pz     Val( 2p)     1.18769      -0.18165
  79    N  6  pz     Ryd( 3p)     0.00043       0.78622
  80    N  6  dxy    Ryd( 3d)     0.00271       2.64419
  81    N  6  dxz    Ryd( 3d)     0.00165       2.25094
  82    N  6  dyz    Ryd( 3d)     0.00154       2.17587
  83    N  6  dx2y2  Ryd( 3d)     0.00174       2.51943
  84    N  6  dz2    Ryd( 3d)     0.00137       2.43934

  85    O  7  s      Cor( 1s)     1.99977     -18.62035
  86    O  7  s      Val( 2s)     1.71212      -0.80676
  87    O  7  s      Ryd( 3s)     0.00219       1.30606
  88    O  7  px     Val( 2p)     1.34913      -0.25988
  89    O  7  px     Ryd( 3p)     0.00228       1.13410
  90    O  7  py     Val( 2p)     1.58391      -0.26621
  91    O  7  py     Ryd( 3p)     0.00065       1.03451
  92    O  7  pz     Val( 2p)     1.87231      -0.25729
  93    O  7  pz     Ryd( 3p)     0.00147       0.91217
  94    O  7  dxy    Ryd( 3d)     0.00186       3.17961
  95    O  7  dxz    Ryd( 3d)     0.00031       2.65858
  96    O  7  dyz    Ryd( 3d)     0.00132       2.64975
  97    O  7  dx2y2  Ryd( 3d)     0.00123       2.80871
  98    O  7  dz2    Ryd( 3d)     0.00107       2.90092

  99    H  8  s      Val( 1s)     0.63253       0.07806
 100    H  8  s      Ryd( 2s)     0.00280       0.36805
 101    H  8  px     Ryd( 2p)     0.00046       1.76918
 102    H  8  py     Ryd( 2p)     0.00122       2.23445
 103    H  8  pz     Ryd( 2p)     0.00088       1.84411

 104    H  9  s      Val( 1s)     0.63981       0.07408
 105    H  9  s      Ryd( 2s)     0.00243       0.38627
 106    H  9  px     Ryd( 2p)     0.00079       1.96568
 107    H  9  py     Ryd( 2p)     0.00079       1.70704
 108    H  9  pz     Ryd( 2p)     0.00099       2.14685

 109    H 10  s      Val( 1s)     0.76947       0.08988
 110    H 10  s      Ryd( 2s)     0.00261       0.32954
 111    H 10  px     Ryd( 2p)     0.00045       2.03447
 112    H 10  py     Ryd( 2p)     0.00016       1.66227
 113    H 10  pz     Ryd( 2p)     0.00058       2.13657

 114    H 11  s      Val( 1s)     0.77257       0.07392
 115    H 11  s      Ryd( 2s)     0.00248       0.31857
 116    H 11  px     Ryd( 2p)     0.00041       2.01604
 117    H 11  py     Ryd( 2p)     0.00028       1.87761
 118    H 11  pz     Ryd( 2p)     0.00042       1.93850

 119    H 12  s      Val( 1s)     0.75374       0.09404
 120    H 12  s      Ryd( 2s)     0.00344       0.35297
 121    H 12  px     Ryd( 2p)     0.00087       2.27541
 122    H 12  py     Ryd( 2p)     0.00019       1.82694
 123    H 12  pz     Ryd( 2p)     0.00013       1.72854

 124    H 13  s      Val( 1s)     0.75473       0.07745
 125    H 13  s      Ryd( 2s)     0.00228       0.32620
 126    H 13  px     Ryd( 2p)     0.00059       2.09764
 127    H 13  py     Ryd( 2p)     0.00019       1.94024
 128    H 13  pz     Ryd( 2p)     0.00035       1.84419

 129    H 14  s      Val( 1s)     0.79778       0.05283
 130    H 14  s      Ryd( 2s)     0.00597       0.32167
 131    H 14  px     Ryd( 2p)     0.00009       1.88390
 132    H 14  py     Ryd( 2p)     0.00092       2.27933
 133    H 14  pz     Ryd( 2p)     0.00016       1.62701

 134    H 15  s      Val( 1s)     0.52646       0.07221
 135    H 15  s      Ryd( 2s)     0.00171       0.38026
 136    H 15  px     Ryd( 2p)     0.00174       2.28543
 137    H 15  py     Ryd( 2p)     0.00106       1.89760
 138    H 15  pz     Ryd( 2p)     0.00151       1.60707

   1 low occupancy (<1.9990e) core orbital  found on  C  2
   1 low occupancy (<1.9990e) core orbital  found on  C  4


 Summary of Natural Population Analysis:

                                     Natural Population
             Natural    ---------------------------------------------
  Atom No    Charge        Core      Valence    Rydberg      Total
 --------------------------------------------------------------------
    N  1   -0.85389      1.99942     5.83878    0.01569     7.85389
    C  2   -0.01186      1.99894     3.99317    0.01975     6.01186
    C  3   -0.46055      1.99904     4.44720    0.01431     6.46055
    C  4   -0.30495      1.99890     4.28849    0.01756     6.30495
    C  5    0.03017      1.99913     3.93862    0.03208     5.96983
    N  6   -0.18328      1.99917     5.15992    0.02418     7.18328
    O  7   -0.52963      1.99977     6.51748    0.01238     8.52963
    H  8    0.36211      0.00000     0.63253    0.00536     0.63789
    H  9    0.35520      0.00000     0.63981    0.00500     0.64480
    H 10    0.22672      0.00000     0.76947    0.00380     0.77328
    H 11    0.22384      0.00000     0.77257    0.00359     0.77616
    H 12    0.24163      0.00000     0.75374    0.00463     0.75837
    H 13    0.24186      0.00000     0.75473    0.00341     0.75814
    H 14    0.19509      0.00000     0.79778    0.00713     0.80491
    H 15    0.46753      0.00000     0.52646    0.00602     0.53247
 ====================================================================
 * Total *  0.00000     13.99438    39.83074    0.17488    54.00000

                                 Natural Population
 ---------------------------------------------------------
   Core                      13.99438 ( 99.9598% of   14)
   Valence                   39.83074 ( 99.5769% of   40)
   Natural Minimal Basis     53.82512 ( 99.6761% of   54)
   Natural Rydberg Basis      0.17488 (  0.3239% of   54)
 ---------------------------------------------------------

    Atom No         Natural Electron Configuration
 ----------------------------------------------------------------------------
      N  1      [core]2s( 1.40)2p( 4.44)3p( 0.01)
      C  2      [core]2s( 0.89)2p( 3.11)3p( 0.01)3d( 0.01)
      C  3      [core]2s( 1.01)2p( 3.44)3p( 0.01)
      C  4      [core]2s( 0.93)2p( 3.36)3p( 0.01)
      C  5      [core]2s( 0.91)2p( 3.03)3s( 0.01)3p( 0.02)
      N  6      [core]2s( 1.44)2p( 3.72)3s( 0.01)3p( 0.01)3d( 0.01)
      O  7      [core]2s( 1.71)2p( 4.81)3d( 0.01)
      H  8            1s( 0.63)
      H  9            1s( 0.64)
      H 10            1s( 0.77)
      H 11            1s( 0.77)
      H 12            1s( 0.75)
      H 13            1s( 0.75)
      H 14            1s( 0.80)2s( 0.01)
      H 15            1s( 0.53)


 NATURAL BOND ORBITAL ANALYSIS:

                            Occupancies       Lewis Structure    Low   High
         Max    Occ     -------------------  -----------------   occ   occ
  Cycle  Ctr   Thresh    Lewis   non-Lewis     CR  BD  nC  LP    (L)   (NL)
 ============================================================================
    1     2     1.90    53.33897   0.66103      7  16   0   4     1      1
    2     2     1.88    53.33905   0.66095      7  16   0   4     0      1
 ----------------------------------------------------------------------------

 Structure accepted: No low occupancy Lewis orbitals

 -------------------------------------------------------
   Core                     13.99438 ( 99.960% of  14)
   Valence Lewis            39.34467 ( 98.362% of  40)
  ==================      =============================
   Total Lewis              53.33905 ( 98.776% of  54)
  -----------------------------------------------------
   Valence non-Lewis         0.55282 (  1.024% of  54)
   Rydberg non-Lewis         0.10813 (  0.200% of  54)
  ==================      =============================
   Total non-Lewis           0.66095 (  1.224% of  54)
 -------------------------------------------------------


     (Occupancy)   Bond orbital / Coefficients / Hybrids
 ------------------ Lewis ------------------------------------------------------
   1. (1.99942) CR ( 1) N  1            s(100.00%)
                                         1.0000  0.0000  0.0000  0.0000  0.0000
                                         0.0000  0.0000  0.0000  0.0000  0.0000
                                         0.0000  0.0000  0.0000  0.0000
   2. (1.99894) CR ( 1) C  2            s(100.00%)
                                         1.0000  0.0000  0.0000  0.0000  0.0000
                                         0.0000  0.0000  0.0000  0.0000  0.0000
                                         0.0000  0.0000  0.0000  0.0000
   3. (1.99904) CR ( 1) C  3            s(100.00%)
                                         1.0000  0.0000  0.0000  0.0000  0.0000
                                         0.0000  0.0000  0.0000  0.0000  0.0000
                                         0.0000  0.0000  0.0000  0.0000
   4. (1.99890) CR ( 1) C  4            s(100.00%)
                                         1.0000  0.0000  0.0000  0.0000  0.0000
                                         0.0000  0.0000  0.0000  0.0000  0.0000
                                         0.0000  0.0000  0.0000  0.0000
   5. (1.99913) CR ( 1) C  5            s(100.00%)
                                         1.0000  0.0000  0.0000  0.0000  0.0000
                                         0.0000  0.0000  0.0000  0.0000  0.0000
                                         0.0000  0.0000  0.0000  0.0000
   6. (1.99917) CR ( 1) N  6            s(100.00%)
                                         1.0000  0.0000  0.0000  0.0000  0.0000
                                         0.0000  0.0000  0.0000  0.0000  0.0000
                                         0.0000  0.0000  0.0000  0.0000
   7. (1.99977) CR ( 1) O  7            s(100.00%)
                                         1.0000  0.0000  0.0000  0.0000  0.0000
                                         0.0000  0.0000  0.0000  0.0000  0.0000
                                         0.0000  0.0000  0.0000  0.0000
   8. (1.93467) LP ( 1) N  1            s( 18.19%)p 4.49( 81.74%)d 0.00(  0.07%)
                                         0.0000  0.4265 -0.0073 -0.2319 -0.0053
                                         0.6277  0.0300  0.6066  0.0266  0.0076
                                         0.0073 -0.0214  0.0095 -0.0042
   9. (1.95453) LP ( 1) N  6            s( 39.78%)p 1.51( 60.14%)d 0.00(  0.07%)
                                         0.0000  0.6300 -0.0297  0.3512  0.0148
                                        -0.6828 -0.0304 -0.1035 -0.0036  0.0169
                                         0.0027 -0.0064  0.0153  0.0123
  10. (1.99295) LP ( 1) O  7            s( 56.74%)p 0.76( 43.23%)d 0.00(  0.03%)
                                         0.0000  0.7531 -0.0159 -0.1257  0.0051
                                         0.6347 -0.0091  0.1165 -0.0015  0.0048
                                         0.0011 -0.0042  0.0157  0.0032
  11. (1.88836) LP ( 2) O  7            s(  0.00%)p 1.00( 99.93%)d 0.00(  0.07%)
                                         0.0000  0.0046  0.0004 -0.0272  0.0002
                                        -0.1909  0.0034  0.9807 -0.0177 -0.0003
                                         0.0051 -0.0234 -0.0048 -0.0081
  12. (1.99074) BD ( 1) N  1- C  2
               ( 59.70%)   0.7726* N  1 s( 35.77%)p 1.79( 64.16%)d 0.00(  0.06%)
                                         0.0000  0.5981  0.0032  0.7740 -0.0049
                                         0.0676 -0.0021 -0.1946 -0.0045 -0.0071
                                        -0.0147 -0.0055  0.0181 -0.0046
               ( 40.30%)   0.6348* C  2 s( 26.68%)p 2.74( 73.22%)d 0.00(  0.10%)
                                         0.0000  0.5158  0.0280 -0.8240 -0.0245
                                        -0.0768  0.0022  0.2128  0.0378  0.0030
                                        -0.0085 -0.0017  0.0268 -0.0124
  13. (1.98353) BD ( 1) N  1- H  8
               ( 68.39%)   0.8270* N  1 s( 22.42%)p 3.46( 77.49%)d 0.00(  0.08%)
                                         0.0000  0.4735  0.0050 -0.2023  0.0196
                                        -0.7659  0.0154  0.3825 -0.0209  0.0050
                                         0.0037 -0.0088 -0.0216 -0.0163
               ( 31.61%)   0.5622* H  8 s( 99.81%)p 0.00(  0.19%)
                                         0.9991 -0.0040  0.0096  0.0355 -0.0224
  14. (1.98873) BD ( 1) N  1- H  9
               ( 68.10%)   0.8252* N  1 s( 23.52%)p 3.25( 76.40%)d 0.00(  0.08%)
                                         0.0000  0.4849  0.0023 -0.5517  0.0330
                                         0.1122 -0.0080 -0.6677  0.0064  0.0081
                                         0.0182  0.0022  0.0052  0.0202
               ( 31.90%)   0.5648* H  9 s( 99.81%)p 0.00(  0.19%)
                                         0.9991 -0.0038  0.0290 -0.0094  0.0305
  15. (1.95658) BD ( 1) C  2- C  3
               ( 49.32%)   0.7023* C  2 s( 24.09%)p 3.15( 75.84%)d 0.00(  0.07%)
                                         0.0000  0.4908 -0.0049  0.2274  0.0078
                                        -0.6422 -0.0080 -0.5421  0.0196 -0.0061
                                        -0.0134  0.0147 -0.0011  0.0159
               ( 50.68%)   0.7119* C  3 s( 23.08%)p 3.33( 76.85%)d 0.00(  0.07%)
                                         0.0000  0.4804 -0.0009 -0.3293 -0.0020
                                        -0.0262 -0.0192  0.8118 -0.0037 -0.0069
                                        -0.0144  0.0162  0.0001  0.0135
  16. (1.91284) BD ( 1) C  2- C  4
               ( 48.31%)   0.6950* C  2 s( 22.16%)p 3.51( 77.77%)d 0.00(  0.07%)
                                         0.0000  0.4708 -0.0042  0.1141 -0.0058
                                         0.7621 -0.0014 -0.4280  0.0262  0.0046
                                        -0.0068 -0.0216 -0.0083  0.0090
               ( 51.69%)   0.7190* C  4 s( 21.44%)p 3.66( 78.51%)d 0.00(  0.05%)
                                         0.0000  0.4630 -0.0029 -0.3058 -0.0157
                                        -0.2338  0.0188  0.7977 -0.0032  0.0063
                                        -0.0061 -0.0171 -0.0069  0.0098
  17. (1.97499) BD ( 1) C  2- H 10
               ( 61.88%)   0.7866* C  2 s( 26.90%)p 2.72( 73.08%)d 0.00(  0.03%)
                                         0.0000  0.5184 -0.0161  0.5038 -0.0238
                                        -0.0083 -0.0023  0.6902  0.0024  0.0020
                                         0.0138  0.0000  0.0070  0.0047
               ( 38.12%)   0.6174* H 10 s( 99.88%)p 0.00(  0.12%)
                                         0.9994 -0.0059 -0.0220 -0.0015 -0.0261
  18. (1.93902) BD ( 1) C  3- C  4
               ( 48.68%)   0.6977* C  3 s( 21.63%)p 3.62( 78.29%)d 0.00(  0.08%)
                                         0.0000  0.4651 -0.0018  0.0336  0.0000
                                         0.8523 -0.0111 -0.2343 -0.0172 -0.0057
                                         0.0003  0.0056 -0.0226 -0.0132
               ( 51.32%)   0.7164* C  4 s( 21.85%)p 3.57( 78.10%)d 0.00(  0.05%)
                                         0.0000  0.4674  0.0008  0.2193 -0.0107
                                        -0.7521  0.0133 -0.4082 -0.0166 -0.0056
                                        -0.0012  0.0020 -0.0186 -0.0124
  19. (1.98134) BD ( 1) C  3- H 11
               ( 61.38%)   0.7835* C  3 s( 26.99%)p 2.70( 72.97%)d 0.00(  0.03%)
                                         0.0000  0.5196  0.0001 -0.5253  0.0220
                                        -0.4097 -0.0146 -0.5340 -0.0077  0.0074
                                         0.0138  0.0061  0.0081 -0.0007
               ( 38.62%)   0.6214* H 11 s( 99.90%)p 0.00(  0.10%)
                                         0.9995 -0.0028  0.0181  0.0153  0.0197
  20. (1.98243) BD ( 1) C  3- H 12
               ( 62.46%)   0.7903* C  3 s( 28.13%)p 2.55( 71.85%)d 0.00(  0.03%)
                                         0.0000  0.5303 -0.0013  0.7835 -0.0083
                                        -0.3225 -0.0163 -0.0068 -0.0146 -0.0054
                                         0.0037  0.0009  0.0131 -0.0083
               ( 37.54%)   0.6127* H 12 s( 99.89%)p 0.00(  0.11%)
                                         0.9994 -0.0053 -0.0312  0.0111  0.0008
  21. (1.96919) BD ( 1) C  4- C  5
               ( 51.41%)   0.7170* C  4 s( 31.21%)p 2.20( 68.76%)d 0.00(  0.03%)
                                         0.0000  0.5586  0.0062  0.6563 -0.0158
                                         0.5000  0.0315  0.0730 -0.0176  0.0136
                                         0.0063  0.0005  0.0055 -0.0093
               ( 48.59%)   0.6970* C  5 s( 36.00%)p 1.78( 63.96%)d 0.00(  0.04%)
                                         0.0000  0.6000  0.0049 -0.6301  0.0033
                                        -0.4819  0.0237 -0.0986 -0.0016  0.0147
                                         0.0028  0.0029 -0.0005 -0.0121
  22. (1.96913) BD ( 1) C  4- H 13
               ( 62.39%)   0.7899* C  4 s( 25.30%)p 2.95( 74.67%)d 0.00(  0.02%)
                                         0.0000  0.5030 -0.0081 -0.6532  0.0171
                                         0.3590  0.0077 -0.4368 -0.0036 -0.0065
                                         0.0097 -0.0051  0.0078 -0.0050
               ( 37.61%)   0.6133* H 13 s( 99.89%)p 0.00(  0.11%)
                                         0.9995 -0.0046  0.0246 -0.0129  0.0168
  23. (1.99062) BD ( 1) C  5- N  6
               ( 40.00%)   0.6325* C  5 s( 32.97%)p 2.03( 66.91%)d 0.00(  0.12%)
                                         0.0000  0.5727  0.0419  0.7641  0.0595
                                        -0.2858 -0.0076  0.0010 -0.0016 -0.0190
                                        -0.0001  0.0004  0.0206 -0.0191
               ( 60.00%)   0.7746* N  6 s( 44.77%)p 1.23( 55.10%)d 0.00(  0.13%)
                                         0.0000  0.6685  0.0293 -0.6977  0.0053
                                         0.2510  0.0009  0.0333  0.0010 -0.0260
                                        -0.0035  0.0026  0.0150 -0.0188
  24. (1.97836) BD ( 2) C  5- N  6
               ( 43.56%)   0.6600* C  5 s(  0.02%)p99.99( 99.83%)d 6.65(  0.15%)
                                         0.0000  0.0141  0.0051  0.0485  0.0006
                                         0.1553 -0.0075 -0.9854  0.0278  0.0049
                                        -0.0348  0.0152  0.0051  0.0017
               ( 56.44%)   0.7513* N  6 s(  0.02%)p99.99( 99.81%)d 7.81(  0.17%)
                                         0.0000  0.0147  0.0020  0.0315  0.0011
                                         0.1786  0.0001 -0.9824  0.0085 -0.0042
                                         0.0287 -0.0282 -0.0058 -0.0074
  25. (1.97850) BD ( 1) C  5- H 14
               ( 60.69%)   0.7791* C  5 s( 31.09%)p 2.22( 68.89%)d 0.00(  0.03%)
                                         0.0000  0.5567 -0.0314 -0.1117 -0.0019
                                         0.8120 -0.0052  0.1303 -0.0001 -0.0025
                                         0.0000  0.0046 -0.0136 -0.0081
               ( 39.31%)   0.6270* H 14 s( 99.89%)p 0.00(  0.11%)
                                         0.9994 -0.0117  0.0039 -0.0323 -0.0056
  26. (1.98520) BD ( 1) N  6- O  7
               ( 41.22%)   0.6420* N  6 s( 15.66%)p 5.37( 84.11%)d 0.01(  0.23%)
                                         0.0000  0.3930  0.0467  0.6203 -0.0594
                                         0.6569 -0.0124  0.1452 -0.0065  0.0348
                                         0.0077  0.0129 -0.0162 -0.0245
               ( 58.78%)   0.7667* O  7 s( 21.73%)p 3.60( 78.15%)d 0.01(  0.12%)
                                         0.0000  0.4658  0.0169 -0.5899 -0.0095
                                        -0.6425 -0.0079 -0.1436 -0.0018  0.0234
                                         0.0054  0.0102 -0.0118 -0.0197
  27. (1.99297) BD ( 1) O  7- H 15
               ( 73.63%)   0.8581* O  7 s( 21.57%)p 3.63( 78.31%)d 0.01(  0.11%)
                                         0.0000  0.4639  0.0223  0.7955  0.0324
                                        -0.3823  0.0051 -0.0546  0.0017 -0.0282
                                        -0.0046  0.0044  0.0038 -0.0170
               ( 26.37%)   0.5135* H 15 s( 99.62%)p 0.00(  0.38%)
                                         0.9981 -0.0023 -0.0556  0.0263  0.0036
 ---------------- non-Lewis ----------------------------------------------------
  28. (0.02346) BD*( 1) N  1- C  2
               ( 40.30%)   0.6348* N  1 s( 35.77%)p 1.79( 64.16%)d 0.00(  0.06%)
                                         0.0000 -0.5981 -0.0032 -0.7740  0.0049
                                        -0.0676  0.0021  0.1946  0.0045  0.0071
                                         0.0147  0.0055 -0.0181  0.0046
               ( 59.70%)  -0.7726* C  2 s( 26.68%)p 2.74( 73.22%)d 0.00(  0.10%)
                                         0.0000 -0.5158 -0.0280  0.8240  0.0245
                                         0.0768 -0.0022 -0.2128 -0.0378 -0.0030
                                         0.0085  0.0017 -0.0268  0.0124
  29. (0.00975) BD*( 1) N  1- H  8
               ( 31.61%)   0.5622* N  1 s( 22.42%)p 3.46( 77.49%)d 0.00(  0.08%)
                                         0.0000 -0.4735 -0.0050  0.2023 -0.0196
                                         0.7659 -0.0154 -0.3825  0.0209 -0.0050
                                        -0.0037  0.0088  0.0216  0.0163
               ( 68.39%)  -0.8270* H  8 s( 99.81%)p 0.00(  0.19%)
                                        -0.9991  0.0040 -0.0096 -0.0355  0.0224
  30. (0.00969) BD*( 1) N  1- H  9
               ( 31.90%)   0.5648* N  1 s( 23.52%)p 3.25( 76.40%)d 0.00(  0.08%)
                                         0.0000 -0.4849 -0.0023  0.5517 -0.0330
                                        -0.1122  0.0080  0.6677 -0.0064 -0.0081
                                        -0.0182 -0.0022 -0.0052 -0.0202
               ( 68.10%)  -0.8252* H  9 s( 99.81%)p 0.00(  0.19%)
                                        -0.9991  0.0038 -0.0290  0.0094 -0.0305
  31. (0.06286) BD*( 1) C  2- C  3
               ( 50.68%)   0.7119* C  2 s( 24.09%)p 3.15( 75.84%)d 0.00(  0.07%)
                                         0.0000  0.4908 -0.0049  0.2274  0.0078
                                        -0.6422 -0.0080 -0.5421  0.0196 -0.0061
                                        -0.0134  0.0147 -0.0011  0.0159
               ( 49.32%)  -0.7023* C  3 s( 23.08%)p 3.33( 76.85%)d 0.00(  0.07%)
                                         0.0000  0.4804 -0.0009 -0.3293 -0.0020
                                        -0.0262 -0.0192  0.8118 -0.0037 -0.0069
                                        -0.0144  0.0162  0.0001  0.0135
  32. (0.05547) BD*( 1) C  2- C  4
               ( 51.69%)   0.7190* C  2 s( 22.16%)p 3.51( 77.77%)d 0.00(  0.07%)
                                         0.0000  0.4708 -0.0042  0.1141 -0.0058
                                         0.7621 -0.0014 -0.4280  0.0262  0.0046
                                        -0.0068 -0.0216 -0.0083  0.0090
               ( 48.31%)  -0.6950* C  4 s( 21.44%)p 3.66( 78.51%)d 0.00(  0.05%)
                                         0.0000  0.4630 -0.0029 -0.3058 -0.0157
                                        -0.2338  0.0188  0.7977 -0.0032  0.0063
                                        -0.0061 -0.0171 -0.0069  0.0098
  33. (0.02826) BD*( 1) C  2- H 10
               ( 38.12%)   0.6174* C  2 s( 26.90%)p 2.72( 73.08%)d 0.00(  0.03%)
                                         0.0000 -0.5184  0.0161 -0.5038  0.0238
                                         0.0083  0.0023 -0.6902 -0.0024 -0.0020
                                        -0.0138  0.0000 -0.0070 -0.0047
               ( 61.88%)  -0.7866* H 10 s( 99.88%)p 0.00(  0.12%)
                                        -0.9994  0.0059  0.0220  0.0015  0.0261
  34. (0.03707) BD*( 1) C  3- C  4
               ( 51.32%)   0.7164* C  3 s( 21.63%)p 3.62( 78.29%)d 0.00(  0.08%)
                                         0.0000  0.4651 -0.0018  0.0336  0.0000
                                         0.8523 -0.0111 -0.2343 -0.0172 -0.0057
                                         0.0003  0.0056 -0.0226 -0.0132
               ( 48.68%)  -0.6977* C  4 s( 21.85%)p 3.57( 78.10%)d 0.00(  0.05%)
                                         0.0000  0.4674  0.0008  0.2193 -0.0107
                                        -0.7521  0.0133 -0.4082 -0.0166 -0.0056
                                        -0.0012  0.0020 -0.0186 -0.0124
  35. (0.01328) BD*( 1) C  3- H 11
               ( 38.62%)   0.6214* C  3 s( 26.99%)p 2.70( 72.97%)d 0.00(  0.03%)
                                         0.0000 -0.5196 -0.0001  0.5253 -0.0220
                                         0.4097  0.0146  0.5340  0.0077 -0.0074
                                        -0.0138 -0.0061 -0.0081  0.0007
               ( 61.38%)  -0.7835* H 11 s( 99.90%)p 0.00(  0.10%)
                                        -0.9995  0.0028 -0.0181 -0.0153 -0.0197
  36. (0.01660) BD*( 1) C  3- H 12
               ( 37.54%)   0.6127* C  3 s( 28.13%)p 2.55( 71.85%)d 0.00(  0.03%)
                                         0.0000 -0.5303  0.0013 -0.7835  0.0083
                                         0.3225  0.0163  0.0068  0.0146  0.0054
                                        -0.0037 -0.0009 -0.0131  0.0083
               ( 62.46%)  -0.7903* H 12 s( 99.89%)p 0.00(  0.11%)
                                        -0.9994  0.0053  0.0312 -0.0111 -0.0008
  37. (0.02904) BD*( 1) C  4- C  5
               ( 48.59%)   0.6970* C  4 s( 31.21%)p 2.20( 68.76%)d 0.00(  0.03%)
                                         0.0000 -0.5586 -0.0062 -0.6563  0.0158
                                        -0.5000 -0.0315 -0.0730  0.0176 -0.0136
                                        -0.0063 -0.0005 -0.0055  0.0093
               ( 51.41%)  -0.7170* C  5 s( 36.00%)p 1.78( 63.96%)d 0.00(  0.04%)
                                         0.0000 -0.6000 -0.0049  0.6301 -0.0033
                                         0.4819 -0.0237  0.0986  0.0016 -0.0147
                                        -0.0028 -0.0029  0.0005  0.0121
  38. (0.02394) BD*( 1) C  4- H 13
               ( 37.61%)   0.6133* C  4 s( 25.30%)p 2.95( 74.67%)d 0.00(  0.02%)
                                         0.0000 -0.5030  0.0081  0.6532 -0.0171
                                        -0.3590 -0.0077  0.4368  0.0036  0.0065
                                        -0.0097  0.0051 -0.0078  0.0050
               ( 62.39%)  -0.7899* H 13 s( 99.89%)p 0.00(  0.11%)
                                        -0.9995  0.0046 -0.0246  0.0129 -0.0168
  39. (0.01282) BD*( 1) C  5- N  6
               ( 60.00%)   0.7746* C  5 s( 32.97%)p 2.03( 66.91%)d 0.00(  0.12%)
                                         0.0000  0.5727  0.0419  0.7641  0.0595
                                        -0.2858 -0.0076  0.0010 -0.0016 -0.0190
                                        -0.0001  0.0004  0.0206 -0.0191
               ( 40.00%)  -0.6325* N  6 s( 44.77%)p 1.23( 55.10%)d 0.00(  0.13%)
                                         0.0000  0.6685  0.0293 -0.6977  0.0053
                                         0.2510  0.0009  0.0333  0.0010 -0.0260
                                        -0.0035  0.0026  0.0150 -0.0188
  40. (0.16880) BD*( 2) C  5- N  6
               ( 56.44%)   0.7513* C  5 s(  0.02%)p99.99( 99.83%)d 6.65(  0.15%)
                                         0.0000  0.0141  0.0051  0.0485  0.0006
                                         0.1553 -0.0075 -0.9854  0.0278  0.0049
                                        -0.0348  0.0152  0.0051  0.0017
               ( 43.56%)  -0.6600* N  6 s(  0.02%)p99.99( 99.81%)d 7.81(  0.17%)
                                         0.0000  0.0147  0.0020  0.0315  0.0011
                                         0.1786  0.0001 -0.9824  0.0085 -0.0042
                                         0.0287 -0.0282 -0.0058 -0.0074
  41. (0.03435) BD*( 1) C  5- H 14
               ( 39.31%)   0.6270* C  5 s( 31.09%)p 2.22( 68.89%)d 0.00(  0.03%)
                                         0.0000 -0.5567  0.0314  0.1117  0.0019
                                        -0.8120  0.0052 -0.1303  0.0001  0.0025
                                         0.0000 -0.0046  0.0136  0.0081
               ( 60.69%)  -0.7791* H 14 s( 99.89%)p 0.00(  0.11%)
                                        -0.9994  0.0117 -0.0039  0.0323  0.0056
  42. (0.02342) BD*( 1) N  6- O  7
               ( 58.78%)   0.7667* N  6 s( 15.66%)p 5.37( 84.11%)d 0.01(  0.23%)
                                         0.0000  0.3930  0.0467  0.6203 -0.0594
                                         0.6569 -0.0124  0.1452 -0.0065  0.0348
                                         0.0077  0.0129 -0.0162 -0.0245
               ( 41.22%)  -0.6420* O  7 s( 21.73%)p 3.60( 78.15%)d 0.01(  0.12%)
                                         0.0000  0.4658  0.0169 -0.5899 -0.0095
                                        -0.6425 -0.0079 -0.1436 -0.0018  0.0234
                                         0.0054  0.0102 -0.0118 -0.0197
  43. (0.00401) BD*( 1) O  7- H 15
               ( 26.37%)   0.5135* O  7 s( 21.57%)p 3.63( 78.31%)d 0.01(  0.11%)
                                         0.0000 -0.4639 -0.0223 -0.7955 -0.0324
                                         0.3823 -0.0051  0.0546 -0.0017  0.0282
                                         0.0046 -0.0044 -0.0038  0.0170
               ( 73.63%)  -0.8581* H 15 s( 99.62%)p 0.00(  0.38%)
                                        -0.9981  0.0023  0.0556 -0.0263 -0.0036
  44. (0.00273) RY ( 1) N  1            s(  1.80%)p50.45( 90.60%)d 4.24(  7.61%)
                                         0.0000  0.0079  0.1338 -0.0048  0.0308
                                         0.0267 -0.7037  0.0228 -0.6392  0.2341
                                         0.1203 -0.0638 -0.0078 -0.0517
  45. (0.00161) RY ( 2) N  1            s(  7.00%)p11.72( 82.06%)d 1.56( 10.95%)
                                         0.0000  0.0041  0.2645  0.0038  0.0575
                                        -0.0158 -0.5486  0.0120  0.7182  0.2265
                                        -0.1871 -0.1020 -0.1069  0.0364
  46. (0.00034) RY ( 3) N  1            s( 20.47%)p 3.50( 71.64%)d 0.39(  7.90%)
                                         0.0000  0.0164  0.4521 -0.0244 -0.8340
                                        -0.0039  0.0942 -0.0142 -0.1053 -0.0276
                                        -0.2185 -0.0337 -0.1265  0.1154
  47. (0.00011) RY ( 4) N  1            s( 49.56%)p 0.09(  4.69%)d 0.92( 45.75%)
                                         0.0000 -0.0093  0.7039  0.0074  0.1730
                                        -0.0020  0.1091  0.0069  0.0703 -0.1466
                                         0.4958  0.1441  0.3733 -0.1735
  48. (0.00006) RY ( 5) N  1            s( 17.96%)p 1.84( 32.99%)d 2.73( 49.05%)
  49. (0.00001) RY ( 6) N  1            s(  1.80%)p 3.61(  6.50%)d50.97( 91.70%)
  50. (0.00001) RY ( 7) N  1            s(  0.27%)p 7.43(  2.04%)d99.99( 97.69%)
  51. (0.00000) RY ( 8) N  1            s(  0.15%)p16.91(  2.58%)d99.99( 97.26%)
  52. (0.00000) RY ( 9) N  1            s(  1.08%)p 6.60(  7.13%)d85.05( 91.79%)
  53. (0.00580) RY ( 1) C  2            s( 11.09%)p 6.94( 77.01%)d 1.07( 11.90%)
                                         0.0000  0.0353  0.3312 -0.0100  0.3735
                                         0.0114 -0.2196  0.0052 -0.7629 -0.1030
                                        -0.2137  0.0181  0.1373  0.2086
  54. (0.00349) RY ( 2) C  2            s( 24.28%)p 2.15( 52.25%)d 0.97( 23.47%)
                                         0.0000 -0.0162  0.4925  0.0331  0.4714
                                         0.0044  0.0640  0.0230  0.5427  0.0052
                                        -0.4585  0.0081  0.1102 -0.1106
  55. (0.00204) RY ( 3) C  2            s( 34.07%)p 1.29( 43.89%)d 0.65( 22.04%)
                                         0.0000 -0.0234  0.5833  0.0282 -0.6504
                                        -0.0053  0.1212 -0.0170  0.0053  0.1787
                                        -0.0081 -0.1182  0.3140  0.2753
  56. (0.00136) RY ( 4) C  2            s(  0.66%)p34.09( 22.43%)d99.99( 76.92%)
                                         0.0000  0.0163  0.0795  0.0003  0.3122
                                        -0.0135  0.3231 -0.0058 -0.1490  0.7240
                                         0.3223 -0.3291  0.0084 -0.1810
  57. (0.00074) RY ( 5) C  2            s(  1.66%)p16.85( 27.90%)d42.55( 70.45%)
                                         0.0000  0.0113  0.1282  0.0139  0.0567
                                         0.0105  0.5079 -0.0178 -0.1309 -0.4135
                                         0.3142  0.2872  0.4111 -0.4282
  58. (0.00027) RY ( 6) C  2            s(  0.45%)p99.99( 56.24%)d97.06( 43.31%)
                                         0.0000 -0.0102  0.0660  0.0122  0.0398
                                         0.0015 -0.7342 -0.0112  0.1465  0.0546
                                         0.3630 -0.0816  0.4489 -0.3003
  59. (0.00016) RY ( 7) C  2            s(  6.50%)p 0.29(  1.85%)d14.11( 91.65%)
                                         0.0000  0.0065  0.2548 -0.0012 -0.0118
                                         0.0166 -0.1344 -0.0003  0.0068  0.3269
                                         0.1956  0.8212 -0.3114 -0.0066
  60. (0.00012) RY ( 8) C  2            s( 18.86%)p 0.10(  1.92%)d 4.20( 79.22%)
                                         0.0000  0.0072  0.4342 -0.0024  0.1000
                                        -0.0096 -0.0478  0.0053  0.0825 -0.3892
                                         0.5013 -0.3086 -0.5360  0.0830
  61. (0.00010) RY ( 9) C  2            s(  2.60%)p 6.39( 16.60%)d31.08( 80.80%)
  62. (0.00446) RY ( 1) C  3            s( 16.83%)p 4.18( 70.34%)d 0.76( 12.83%)
                                         0.0000  0.0271  0.4093  0.0020 -0.0949
                                        -0.0021  0.7046 -0.0025  0.4449 -0.1058
                                        -0.0306  0.3210 -0.0417 -0.1068
  63. (0.00370) RY ( 2) C  3            s(  0.47%)p99.99( 92.16%)d15.60(  7.36%)
                                         0.0000 -0.0003  0.0687  0.0202  0.9513
                                         0.0081  0.0615  0.0145  0.1105  0.2129
                                         0.1081  0.0175 -0.0540  0.1158
  64. (0.00105) RY ( 3) C  3            s(  1.00%)p92.82( 92.66%)d 6.35(  6.34%)
                                         0.0000  0.0005  0.0999 -0.0069  0.0712
                                        -0.0094  0.5225  0.0112 -0.8052 -0.0619
                                         0.0358 -0.1979 -0.1040 -0.0909
  65. (0.00056) RY ( 4) C  3            s( 72.09%)p 0.16( 11.84%)d 0.22( 16.07%)
                                         0.0000 -0.0068  0.8490 -0.0037  0.0277
                                         0.0059 -0.3382 -0.0001 -0.0571 -0.0859
                                        -0.1158 -0.2916  0.2182 -0.0851
  66. (0.00017) RY ( 5) C  3            s(  3.84%)p 2.79( 10.71%)d22.27( 85.45%)
                                         0.0000 -0.0219  0.1947  0.0040 -0.0057
                                        -0.0031 -0.2410  0.0005 -0.2213 -0.3484
                                         0.5777  0.5725 -0.1750  0.2026
  67. (0.00010) RY ( 6) C  3            s(  4.54%)p 1.68(  7.62%)d19.33( 87.84%)
                                         0.0000 -0.0035  0.2131  0.0056 -0.2027
                                        -0.0005 -0.0549 -0.0017 -0.1791  0.8450
                                        -0.0869  0.3400 -0.1356  0.1509
  68. (0.00008) RY ( 7) C  3            s(  0.64%)p 9.45(  6.02%)d99.99( 93.34%)
  69. (0.00002) RY ( 8) C  3            s(  0.63%)p 4.61(  2.91%)d99.99( 96.46%)
  70. (0.00001) RY ( 9) C  3            s(  0.14%)p42.57(  5.77%)d99.99( 94.10%)
  71. (0.00601) RY ( 1) C  4            s( 10.55%)p 7.80( 82.23%)d 0.68(  7.22%)
                                         0.0000  0.0339  0.3230  0.0164  0.3828
                                        -0.0007 -0.8107  0.0116  0.1347  0.0384
                                         0.0467 -0.2182 -0.0344 -0.1407
  72. (0.00431) RY ( 2) C  4            s( 24.00%)p 2.58( 61.88%)d 0.59( 14.12%)
                                         0.0000 -0.0084  0.4898 -0.0222 -0.7786
                                         0.0108 -0.1026 -0.0154  0.0337  0.2549
                                        -0.0996 -0.0812 -0.1740 -0.1716
  73. (0.00099) RY ( 3) C  4            s( 44.20%)p 1.08( 47.62%)d 0.19(  8.19%)
                                         0.0000 -0.0189  0.6645 -0.0068  0.4221
                                        -0.0071  0.5421  0.0005 -0.0635  0.1101
                                         0.1034 -0.2111 -0.0344 -0.1153
  74. (0.00081) RY ( 4) C  4            s(  0.05%)p99.99( 75.05%)d99.99( 24.90%)
                                         0.0000 -0.0093  0.0207 -0.0099  0.0952
                                         0.0013 -0.1358  0.0002 -0.8502  0.3051
                                        -0.3666  0.0865  0.0902  0.0769
  75. (0.00051) RY ( 5) C  4            s(  0.58%)p 2.47(  1.44%)d99.99( 97.97%)
                                         0.0000  0.0023  0.0764 -0.0101  0.0351
                                        -0.0079 -0.0785  0.0126 -0.0820  0.3295
                                         0.6414  0.6720 -0.0235 -0.0877
  76. (0.00033) RY ( 6) C  4            s(  5.95%)p 2.24( 13.31%)d13.57( 80.74%)
                                         0.0000  0.0186  0.2433  0.0018  0.0304
                                        -0.0140 -0.0081 -0.0051  0.3631  0.1673
                                        -0.3783  0.3496  0.6707  0.2534
  77. (0.00018) RY ( 7) C  4            s(  2.08%)p 2.31(  4.80%)d44.75( 93.11%)
                                         0.0000 -0.0028  0.1442 -0.0054 -0.0728
                                         0.0004 -0.0182  0.0185 -0.2051 -0.6354
                                        -0.0547  0.2536  0.2892 -0.6136
  78. (0.00010) RY ( 8) C  4            s(  9.60%)p 0.07(  0.66%)d 9.34( 89.74%)
  79. (0.00008) RY ( 9) C  4            s(  3.19%)p 4.07( 12.97%)d26.29( 83.84%)
  80. (0.01291) RY ( 1) C  5            s( 40.61%)p 1.29( 52.45%)d 0.17(  6.94%)
                                         0.0000 -0.0315  0.6364 -0.0507  0.7143
                                         0.0427  0.0090  0.0104  0.0983  0.1973
                                         0.0390 -0.0186  0.1683 -0.0172
  81. (0.00553) RY ( 2) C  5            s(  0.01%)p 1.00( 96.79%)d 0.03(  3.20%)
                                         0.0000  0.0057  0.0062 -0.0202  0.0385
                                        -0.0171 -0.9699  0.0087  0.1576 -0.0424
                                        -0.0359  0.0205 -0.1686 -0.0098
  82. (0.00312) RY ( 3) C  5            s(  1.05%)p80.45( 84.57%)d13.67( 14.38%)
                                         0.0000  0.0079  0.1022  0.0045 -0.2305
                                        -0.0033  0.1218  0.0351  0.8812  0.0031
                                        -0.3376 -0.1078  0.1345 -0.0049
  83. (0.00118) RY ( 4) C  5            s( 42.37%)p 1.16( 49.36%)d 0.20(  8.28%)
                                         0.0000  0.0151  0.6507  0.0034 -0.6224
                                         0.0163 -0.1086  0.0031 -0.3068  0.1559
                                        -0.1177 -0.0573  0.1995 -0.0387
  84. (0.00050) RY ( 5) C  5            s(  2.02%)p 6.07( 12.25%)d42.48( 85.73%)
                                         0.0000  0.0048  0.1420  0.0045 -0.1937
                                         0.0059  0.0066 -0.0211  0.2906 -0.0952
                                         0.9148  0.0946  0.0313  0.0383
  85. (0.00030) RY ( 6) C  5            s(  0.01%)p99.99(  2.11%)d99.99( 97.88%)
                                         0.0000  0.0104  0.0022  0.0347 -0.0791
                                        -0.0093  0.0788  0.0043  0.0858  0.7662
                                         0.0329  0.1465 -0.5854  0.1627
  86. (0.00012) RY ( 7) C  5            s( 13.65%)p 0.17(  2.36%)d 6.15( 83.99%)
                                         0.0000 -0.0011  0.3694 -0.0095 -0.0012
                                         0.0025  0.1532 -0.0013  0.0078 -0.5741
                                        -0.1043  0.0241 -0.6971  0.1133
  87. (0.00002) RY ( 8) C  5            s(  0.13%)p 3.21(  0.43%)d99.99( 99.44%)
  88. (0.00001) RY ( 9) C  5            s(  0.07%)p 1.22(  0.09%)d99.99( 99.84%)
  89. (0.00392) RY ( 1) N  6            s( 26.74%)p 2.30( 61.45%)d 0.44( 11.81%)
                                         0.0000  0.0026  0.5171  0.0106  0.0132
                                        -0.0390  0.7719 -0.0041  0.1296  0.2109
                                         0.0748 -0.0007  0.2491 -0.0775
  90. (0.00160) RY ( 2) N  6            s( 33.32%)p 1.08( 35.87%)d 0.92( 30.81%)
                                         0.0000 -0.0313  0.5764 -0.0028 -0.3655
                                        -0.0351 -0.4652 -0.0065 -0.0860 -0.2278
                                        -0.0166 -0.0956  0.4965 -0.0168
  91. (0.00131) RY ( 3) N  6            s(  0.01%)p 1.00(  3.87%)d24.85( 96.13%)
                                         0.0000 -0.0002  0.0083  0.0003 -0.0090
                                         0.0010  0.0499 -0.0154 -0.1894  0.1808
                                        -0.8691 -0.3686 -0.0259 -0.1916
  92. (0.00065) RY ( 4) N  6            s(  9.91%)p 8.87( 87.91%)d 0.22(  2.18%)
                                         0.0000 -0.0007  0.3148  0.0353  0.9021
                                         0.0291 -0.1698  0.0056 -0.1852 -0.1354
                                        -0.0164  0.0151  0.0506  0.0206
  93. (0.00030) RY ( 5) N  6            s( 11.92%)p 1.00( 11.88%)d 6.39( 76.20%)
                                         0.0000 -0.0183  0.3448 -0.0484 -0.0453
                                        -0.0360 -0.3361 -0.0080 -0.0047  0.7379
                                         0.1248  0.1497 -0.3877 -0.1709
  94. (0.00021) RY ( 6) N  6            s(  0.04%)p99.99( 94.25%)d99.99(  5.71%)
[...]
                   0.00001   0.00001   0.00000   0.00000   0.00580   0.00349
                  --------  --------  --------  --------  --------  --------
  0 N               107.5     105.9     105.3     106.3     -11.3      -1.2
  1 C                -1.8      -0.4      -0.9      -1.0     187.7     156.4
  2 C                -0.1      -0.0      -0.1       0.0     -49.5      -7.3
  3 C                -0.1       0.0      -0.1      -0.1     -19.8     -10.5
  4 C                 0.0      -0.0       0.0       0.0      -2.4      -0.7
  5 N                 0.0      -0.0      -0.0      -0.0       0.2      -0.1
  7 H                -1.9      -2.5      -2.2      -3.6      -0.2      -0.0
  8 H                -3.5      -2.9      -2.0      -1.6      -0.5      -0.3
  9 H                -0.0      -0.0      -0.1      -0.1      -4.1     -36.0
 10 H                 0.0      -0.0       0.0      -0.0       0.3      -0.2
 11 H                 0.0      -0.0       0.0      -0.0      -0.4       0.2
 12 H                -0.1      -0.0      -0.0       0.0      -0.1      -0.3

                     54        55        56        57        58        59   
                   0.00000   0.00000   0.00000   0.00000   0.00000   0.00000
                   0.00204   0.00136   0.00074   0.00027   0.00016   0.00012
                  --------  --------  --------  --------  --------  --------
  0 N               -41.4      -5.2      -1.2      -3.1      -5.6     -12.2
  1 C               186.7     114.4     124.2     125.6     119.4     149.0
  2 C               -16.5      -5.2       0.1      -8.1      -4.8     -15.2
  3 C               -25.9      -0.8     -20.5     -12.0      -4.8     -12.8
  4 C                -0.1      -3.3      -0.5       0.3      -0.1       0.9
  5 N                -0.2       0.1       0.0      -0.0      -0.0      -0.0
  7 H                -2.4       0.3      -1.0      -0.2      -0.4      -0.6
  8 H                -1.4      -0.2      -0.2      -0.1      -0.1      -0.2
  9 H                -0.3      -0.3      -0.9      -2.7      -3.4      -8.7
 10 H                 0.6       0.1      -0.1       0.1      -0.2       0.3
 11 H                -0.0       0.1       0.1       0.1       0.1      -0.3
 12 H                 0.9       0.1      -0.1       0.0      -0.1      -0.2

                     60        61        62        63        64        65   
                   0.00000   0.00000   0.00000   0.00000   0.00000   0.00000
                   0.00010   0.00446   0.00370   0.00105   0.00056   0.00017
                  --------  --------  --------  --------  --------  --------
  0 N                -7.9       0.3      -0.3      -0.2       0.3      -0.5
  1 C               128.2     -37.5     -12.6      -9.7     -33.4      -1.5
  2 C                -8.5     184.4     153.8     131.8     199.9     112.0
  3 C                -4.5     -42.5      -8.0     -18.8     -22.7       0.2
  4 C                 0.5       4.0      -0.4       0.5       1.2      -0.0
  5 N                -0.0      -2.7      -1.0      -0.2      -0.6      -0.2
  6 O                -0.0      -0.2      -0.1       0.0      -0.0      -0.0
  7 H                -0.5       0.0       0.1      -0.1       0.0      -0.0
  8 H                -0.0      -0.3       0.0      -0.0      -0.0      -0.0
  9 H                -7.7      -0.4       0.0       0.3      -0.2      -0.0
 10 H                 0.3      -2.6     -10.4      -2.8     -23.1      -7.5
 11 H                 0.0      -2.3     -20.9      -0.9     -21.3      -2.4
 12 H                 0.1      -0.3       0.1       0.1      -0.1      -0.0

                     66        67        68        69        70        71   
                   0.00000   0.00000   0.00000   0.00000   0.00000   0.00000
                   0.00010   0.00008   0.00002   0.00001   0.00601   0.00431
                  --------  --------  --------  --------  --------  --------
  0 N                 0.0       0.3       0.0       0.2      -0.3       0.4
  1 C                -1.3      -3.7      -1.7      -8.4     -16.8     -33.2
  2 C               121.0     112.4     109.8     110.5     -48.9     -12.0
  3 C                -4.8      -3.5      -1.5      -0.0     198.6     172.0
  4 C                -0.3       0.1      -0.0      -0.0     -25.8      -3.4
  5 N                 0.1      -0.1      -0.0       0.0      -0.5      -0.1
  9 H                -0.0      -0.4      -0.0      -0.1       0.6      -0.5
 10 H                -9.3      -1.6      -3.1      -1.0       0.1       0.4
 11 H                -5.6      -3.3      -3.4      -1.1       0.8      -0.3
 12 H                 0.1      -0.2      -0.0      -0.0      -8.8     -23.3
 13 H                -0.0      -0.0      -0.0      -0.0       1.3      -0.0

                     72        73        74        75        76        77   
                   0.00000   0.00000   0.00000   0.00000   0.00000   0.00000
                   0.00099   0.00081   0.00051   0.00033   0.00018   0.00010
                  --------  --------  --------  --------  --------  --------
  0 N                -0.5       1.3      -0.3      -0.5       0.0       0.3
  1 C                -9.0     -21.9      -1.6     -12.8      -1.4      -8.6
  2 C               -11.2      -9.4      -0.7      -3.4      -1.5      -6.7
  3 C               243.8     142.0     105.0     125.8     109.6     132.7
  4 C              -115.3      -6.7      -1.9      -7.8      -0.8     -15.4
  5 N                 0.7      -0.1       0.0      -0.3       0.0       0.4
  6 O                -0.8      -0.1       0.0      -0.1      -0.0      -0.3
  8 H                -0.3      -0.1      -0.0      -0.0      -0.0       0.0
  9 H                 0.6       0.1       0.0       0.5      -0.2       0.1
 10 H                -0.1       0.5      -0.3      -0.0       0.2      -0.2
 11 H                 0.5      -0.3       0.1      -0.0      -0.2       0.3
 12 H                -6.3      -5.3      -0.4      -1.1      -5.7      -2.5
 13 H                -1.9      -0.2      -0.0      -0.2      -0.0      -0.3

                     78        79        80        81        82        83   
                   0.00000   0.00000   0.00000   0.00000   0.00000   0.00000
                   0.00008   0.01291   0.00553   0.00312   0.00118   0.00050
                  --------  --------  --------  --------  --------  --------
  1 C                -1.9      -0.9      -2.1      -0.8      -2.9       1.4
  2 C                -9.1       1.4       3.6      -0.5       1.6      -0.2
  3 C               120.5     -15.2     -32.5      -6.4    -102.5     -10.4
  4 C                -0.6     187.8     183.3     119.2     219.2     112.9
  5 N                -0.3     -64.1     -21.9      -7.0      -5.8      -1.9
  6 O                 0.0      -3.2      -1.8      -0.0      -2.7      -0.3
  9 H                 0.0      -0.9      -1.0      -0.2      -0.7      -0.3
 11 H                 0.1      -0.3      -0.2       0.0      -0.2      -0.0
 12 H                -8.8       0.3      -0.2      -0.1       0.2      -0.2
 13 H                -0.1      -4.6     -27.1      -4.2      -5.9      -0.9
 14 H                 0.0      -0.3      -0.0      -0.0      -0.1      -0.0

                     84        85        86        87        88        89   
                   0.00000   0.00000   0.00000   0.00000   0.00000   0.00000
                   0.00030   0.00012   0.00002   0.00001   0.00392   0.00160
                  --------  --------  --------  --------  --------  --------
  1 C                -0.1      -0.3      -0.1      -0.1       0.1      -0.1
  2 C                 0.1      -0.0      -0.0      -0.0      -3.0       0.0
  3 C                -2.1     -13.0       0.7      -0.6       2.0      -2.6
  4 C               105.5     133.4     103.6     104.3     -21.1     -21.3
  5 N                -1.1      -9.8       0.1      -0.7     125.2     154.8
  6 O                 0.1       0.7      -0.0      -0.0      -1.4     -28.5
  9 H                -0.0      -0.3       0.0      -0.0       0.1      -0.0
 11 H                -0.0      -0.1      -0.0      -0.0      -1.5      -0.2
 12 H                 0.0      -0.2      -0.0      -0.0      -0.0      -0.1
 13 H                -2.4     -10.5      -4.2      -2.7      -0.3      -0.1
 14 H                 0.0       0.0      -0.0      -0.0      -0.0      -1.8

                     90        91        92        93        94        95   
                   0.00000   0.00000   0.00000   0.00000   0.00000   0.00000
                   0.00131   0.00065   0.00030   0.00021   0.00003   0.00001
                  --------  --------  --------  --------  --------  --------
  1 C                -0.0       0.8      -0.2      -0.1      -0.2      -0.0
  2 C                 0.0      -2.4       0.7      -0.1      -0.2      -0.0
  3 C                -0.0       3.2      -1.3       0.0      -0.5       0.0
  4 C                -1.3     -39.1     -10.2      -6.2      -8.7      -0.5
  5 N               102.6     139.7     111.4     108.2     116.3     102.4
  6 O                -1.2      -0.5       0.1      -1.6      -6.1      -1.6
  9 H                -0.0       0.1      -0.0      -0.1      -0.0       0.0
 11 H                -0.0       0.0      -0.2      -0.0      -0.1      -0.0
 13 H                -0.0      -0.7      -0.3      -0.1      -0.2      -0.1
 14 H                -0.0      -1.0       0.1      -0.0      -0.3      -0.1

                     96        97        98        99       100       101   
                   0.00000   0.00000   0.00000   0.00000   0.00000   0.00000
                   0.00000   0.00186   0.00119   0.00017   0.00009   0.00003
                  --------  --------  --------  --------  --------  --------
  2 C                -0.0      -0.2      -0.0       0.0      -0.2       0.0
  3 C                -0.1      -0.7      -0.0      -0.5      -0.1       0.1
  4 C                -1.8      -3.4      -0.1      -1.8      -0.9      -0.6
  5 N               102.2      -6.7      -0.7      -3.2     -24.0       0.9
  6 O                -0.2     113.8     101.8     107.6     128.3     105.5
 13 H                -0.1      -0.7       0.0       0.0       0.1      -0.0
 14 H                -0.0      -2.0      -1.0      -2.2      -3.1      -5.9

                    102       103       104       105       106       107   
                   0.00000   0.00000   0.00000   0.00000   0.00000   0.00000
                   0.00001   0.00000   0.00000   0.00000   0.00297   0.00082
                  --------  --------  --------  --------  --------  --------
  0 N                -0.0      -0.0      -0.0      -0.0      -7.8      -3.5
  1 C                -0.0      -0.0      -0.0      -0.0      -3.9      -0.5
  3 C                -0.1      -0.0      -0.0      -0.0      -0.2       0.0
  4 C                -0.1      -0.1      -0.0      -0.1       0.0      -0.0
  5 N                -2.9      -1.0      -0.0      -1.1      -0.0      -0.0
  6 O               104.1     105.1     102.3     104.9      -0.0      -0.0
  7 H                -0.0      -0.0      -0.0      -0.0     113.7     104.4
  8 H                -0.0      -0.0      -0.0      -0.0      -1.7      -0.3
  9 H                 0.0      -0.0      -0.0      -0.0      -0.2      -0.1
 10 H                -0.0       0.0       0.0      -0.0      -0.1      -0.0
 14 H                -0.9      -3.9      -2.3      -3.7      -0.0      -0.0

                    108       109       110       111       112       113   
                   0.00000   0.00000   0.00000   0.00000   0.00000   0.00000
                   0.00041   0.00002   0.00260   0.00085   0.00038   0.00002
                  --------  --------  --------  --------  --------  --------
  0 N                -3.0      -5.0      -9.2      -3.6      -2.9      -5.1
  1 C                -0.2      -0.0      -2.5      -0.1      -0.4      -0.2
  2 C                -0.0      -0.0      -0.2      -0.0      -0.0       0.0
  3 C                -0.1       0.0       0.0      -0.2      -0.1       0.0
  4 C                 0.0      -0.0      -0.1      -0.0      -0.0      -0.0
  7 H               103.9     105.3      -1.7      -0.3      -0.4      -0.3
  8 H                -0.5      -0.2     116.5     104.5     104.0     105.8
 10 H                -0.0      -0.0      -0.9      -0.0      -0.0      -0.0
 12 H                -0.0      -0.0      -1.9      -0.2      -0.1      -0.1

                    114       115       116       117       118       119   
                   0.00000   0.00000   0.00000   0.00000   0.00000   0.00000
                   0.00264   0.00016   0.00007   0.00004   0.00252   0.00019
                  --------  --------  --------  --------  --------  --------
  0 N                -0.2      -0.2      -0.7      -0.3      -0.3      -0.0
  1 C               -41.0      -2.9      -7.5      -5.0       1.3      -0.1
  2 C                -0.8      -0.2       0.2      -0.6     -41.5      -2.7
  3 C                 1.9      -0.1      -0.0      -0.4       0.6      -0.4
  4 C                -3.2      -0.0      -0.0      -0.1       0.1      -0.0
  7 H                -0.2      -0.1      -0.0      -0.1      -0.1      -0.0
  8 H                -0.0      -0.1      -0.1      -0.0      -0.9      -0.0
  9 H               144.2     103.7     108.1     106.4       0.0      -0.0
 10 H                 0.0      -0.0      -0.0      -0.0     142.4     103.5
 11 H                -0.6      -0.0      -0.0       0.0      -0.8      -0.2
 12 H                 0.1      -0.0      -0.0      -0.0      -0.6      -0.0

                    120       121       122       123       124       125   
                   0.00000   0.00000   0.00000   0.00000   0.00000   0.00000
                   0.00012   0.00002   0.00351   0.00017   0.00011   0.00002
                  --------  --------  --------  --------  --------  --------
  0 N                -0.1      -0.0       0.1      -0.1      -0.0      -0.0
  1 C                -0.1      -0.3      -0.5      -0.0      -0.0      -0.5
  2 C                -4.7      -6.6     -41.6      -3.1      -5.5      -6.0
  3 C                -0.0      -0.3       1.6      -0.3       0.0      -0.4
  4 C                -0.0      -0.0      -0.8      -0.0       0.0       0.0
  5 N                -0.0      -0.0      -1.7      -0.0      -0.1      -0.0
  9 H                -0.0      -0.0      -0.6      -0.0      -0.0       0.0
 10 H               105.7     107.2      -0.8      -0.2      -0.7      -0.0
 11 H                -0.8      -0.0     144.4     103.8     106.5     106.9

                    126       127       128       129       130       131   
                   0.00000   0.00000   0.00000   0.00000   0.00000   0.00000
                   0.00232   0.00018   0.00008   0.00003   0.00610   0.00013
                  --------  --------  --------  --------  --------  --------
  0 N                -0.3      -0.0      -0.1      -0.0       0.0      -0.0
  1 C                 0.7      -0.1      -0.0      -0.3       0.1      -0.0
  2 C                 0.1      -0.3      -0.1      -0.5       0.0      -0.0
  3 C               -38.7      -3.0      -5.7      -6.6      -1.3      -0.1
  4 C                -0.3      -0.3      -0.5       0.2     -40.6      -2.8
  5 N                -0.0      -0.2      -0.0      -0.0      -0.8      -0.1
  6 O                -0.0      -0.0      -0.0      -0.0      -0.6      -0.0
  8 H                -2.0      -0.0      -0.1      -0.0      -0.0      -0.0
 10 H                -0.6      -0.0       0.0      -0.0      -0.0      -0.0
 12 H               141.8     104.2     106.6     107.4      -0.7      -0.0
 13 H                -0.7      -0.0      -0.0      -0.0     143.9     103.2

                    132       133       134       135       136       137   
                   0.00000   0.00000   0.00000   0.00000   0.00000   0.00000
                   0.00009   0.00003   0.00175   0.00154   0.00072   0.00004
                  --------  --------  --------  --------  --------  --------
  3 C                -1.3       0.3      -0.0      -0.0      -0.0       0.0
  4 C                -5.2      -6.8      -0.1      -0.0      -0.1       0.1
  5 N                -0.2      -0.9      -3.0      -0.1      -0.3      -0.3
  6 O                -0.1      -0.0      -4.0      -3.2      -3.0      -2.6
 13 H               106.8     107.5      -0.0      -0.0      -0.0      -0.0
 14 H                -0.0      -0.0     107.1     103.3     103.4     102.8


Storing NBOs: 6063.nbo
                                    *** NBOs were stored ***

                                *** returned from GENNBO program ***

-------
TIMINGS
-------

Total SCF time: 0 days 0 hours 0 min 5 sec 

Total time                  ....       5.300 sec
Sum of individual times     ....       5.763 sec  (108.7%)

Fock matrix formation       ....       3.415 sec  ( 64.4%)
  Coulomb formation         ....       1.863 sec  ( 54.6% of F)
  Split-RI-J                ....       1.856 sec  ( 54.3% of F)
  XC integration            ....       1.547 sec  ( 45.3% of F)
    Basis function eval.    ....       0.535 sec  ( 34.6% of XC)
    Density eval.           ....       0.282 sec  ( 18.2% of XC)
    XC-Functional eval.     ....       0.101 sec  (  6.5% of XC)
    XC-Potential eval.      ....       0.575 sec  ( 37.1% of XC)
Diagonalization             ....       0.024 sec  (  0.4%)
Density matrix formation    ....       0.003 sec  (  0.1%)
Population analysis         ....       1.299 sec  ( 24.5%)
Initial guess               ....       0.352 sec  (  6.6%)
Orbital Transformation      ....       0.000 sec  (  0.0%)
Orbital Orthonormalization  ....       0.000 sec  (  0.0%)
DIIS solution               ....       0.006 sec  (  0.1%)
SOSCF solution              ....       0.012 sec  (  0.2%)
Grid generation             ....       0.653 sec  ( 12.3%)
           ************************************************************
           *              Shut down parallel processing               *
           ************************************************************

-------------------------   --------------------
FINAL SINGLE POINT ENERGY      -341.206001162555
-------------------------   --------------------


                            ***************************************
                            *     ORCA property calculations      *
                            ***************************************

                                    ---------------------
                                    Active property flags
                                    ---------------------
   (+) Dipole Moment


------------------------------------------------------------------------------
                       ORCA ELECTRIC PROPERTIES CALCULATION
------------------------------------------------------------------------------

Dipole Moment Calculation                       ... on
Quadrupole Moment Calculation                   ... off
Polarizability Calculation                      ... off
GBWName                                         ... 6063.gbw
Electron density file                           ... 6063.scfp.tmp

-------------
DIPOLE MOMENT
-------------
                                X             Y             Z
Electronic contribution:      4.42208       2.89171      -0.23737
Nuclear contribution   :     -4.60345      -3.37355       0.03896
                        -----------------------------------------
Total Dipole Moment    :     -0.18137      -0.48183      -0.19841
                        -----------------------------------------
Magnitude (a.u.)       :      0.55175
Magnitude (Debye)      :      1.40242


Timings for individual modules:

Sum of individual times         ...        6.450 sec (=   0.107 min)
GTO integral calculation        ...        0.473 sec (=   0.008 min)   7.3 %
SCF iterations                  ...        5.976 sec (=   0.100 min)  92.7 %
                             ****ORCA TERMINATED NORMALLY****
TOTAL RUN TIME: 0 days 0 hours 0 minutes 6 seconds 842 msec
