
                                 *****************
                                 * O   R   C   A *
                                 *****************

           --- An Ab Initio, DFT and Semiempirical electronic structure package ---

                  #######################################################
                  #                        -***-                        #
                  #  Department of molecular theory and spectroscopy    #
                  #              Directorship: Frank Neese              #
                  # Max Planck Institute for Chemical Energy Conversion #
                  #                  D-45470 Muelheim/Ruhr              #
                  #                       Germany                       #
                  #                                                     #
                  #                  All rights reserved                #
                  #                        -***-                        #
                  #######################################################


                         Program Version 3.0.3 - RELEASE   -


 With contributions from (in alphabetic order):
   Ute Becker             : Parallelization
   Dmytro Bykov           : SCF Hessian
   Dmitry Ganyushin       : Spin-Orbit,Spin-Spin,Magnetic field MRCI
   Andreas Hansen         : Spin unrestricted coupled pair/coupled cluster methods
   Dimitrios Liakos       : Extrapolation schemes; parallel MDCI
   Robert Izsak           : Overlap fitted RIJCOSX, COSX-SCS-MP3
   Christian Kollmar      : KDIIS, OOCD, Brueckner-CCSD(T), CCSD density
   Simone Kossmann        : Meta GGA functionals, TD-DFT gradient, OOMP2, MP2 Hessian
   Taras Petrenko         : DFT Hessian,TD-DFT gradient, ASA and ECA modules, normal mode analysis, Resonance Raman, ABS, FL, XAS/XES, NRVS
   Christoph Reimann      : Effective Core Potentials
   Michael Roemelt        : Restricted open shell CIS
   Christoph Riplinger    : Improved optimizer, TS searches, QM/MM, DLPNO-CCSD
   Barbara Sandhoefer     : DKH picture change effects
   Igor Schapiro          : Molecular dynamics
   Kantharuban Sivalingam : CASSCF convergence, NEVPT2
   Boris Wezisla          : Elementary symmetry handling
   Frank Wennmohs         : Technical directorship


 We gratefully acknowledge several colleagues who have allowed us to
 interface, adapt or use parts of their codes:
   Stefan Grimme, W. Hujo, H. Kruse, T. Risthaus : VdW corrections, initial TS optimization,
                                                   DFT functionals, gCP
   Ed Valeev                                     : LibInt (2-el integral package), F12 methods
   Garnet Chan, S. Sharma, R. Olivares           : DMRG
   Ulf Ekstrom                                   : XCFun DFT Library
   Mihaly Kallay                                 : mrcc  (arbitrary order and MRCC methods)
   Andreas Klamt, Michael Diedenhofen            : otool_cosmo (COSMO solvation model)
   Frank Weinhold                                : gennbo (NPA and NBO analysis)
   Christopher J. Cramer and Donald G. Truhlar   : smd solvation model


 Your calculation uses the libint2 library for the computation of 2-el integrals
 For citations please refer to: http://libint.valeyev.net

 This ORCA versions uses:
   CBLAS   interface :  Fast vector & matrix operations
   LAPACKE interface :  Fast linear algebra routines
   SCALAPACK package :  Parallel linear algebra routines


Your calculation utilizes the basis: Ahlrichs-VDZ
Cite in your paper:
H - Kr: A. Schaefer, H. Horn and R. Ahlrichs, J. Chem. Phys. 97, 2571 (1992).

Your calculation utilizes the basis: Ahlrichs SVPalls1+f
Cite in your paper:
Rb - Xe: A. Schaefer, C. Huber and R. Ahlrichs, J. Chem. Phys. 100, 5829 (1994).

================================================================================
                                        WARNINGS
                       Please study these warnings very carefully!
================================================================================
Now building the actual basis set


INFO   : the flag for use of LIBINT has been found!

================================================================================
                                       INPUT FILE
================================================================================
NAME = 6081.inp
|  1> ! RI PBE def2-SVP def2-SVP/J NBO PAL2
|  2> % maxcore 2000
|  3> % output
|  4>     # printlevel mini
|  5>     print[ P_Basis ] 0
|  6>     print[ P_SCFInfo ] 1
|  7>     print[ P_SCFIterInfo ] 1
|  8>     print[ P_OrbEn ] 0
|  9>     print[ P_Cartesian ] 0
| 10> end
| 11> *xyz 0 1
| 12>  N        0.9948120000    -0.1516360000    -0.0635780000 
| 13>  C        2.3410500000     0.0854490000    -0.0572000000 
| 14>  C        3.1204140000     1.1882130000    -0.0555730000 
| 15>  C        4.4870600000     0.7116310000    -0.0477910000 
| 16>  C        4.4116870000    -0.6366320000    -0.0453980000 
| 17>  N        5.3185700000    -1.6594350000    -0.0389010000 
| 18>  O        3.1093770000    -1.0412090000    -0.0510430000 
| 19>  H        0.3486180000     0.6096430000    -0.0671970000 
| 20>  H        0.6515200000    -1.0904500000    -0.0621590000 
| 21>  H        2.7871910000     2.2130220000    -0.0593720000 
| 22>  H        5.3852820000     1.3070050000    -0.0445790000 
| 23>  H        6.2980150000    -1.4650560000    -0.0332980000 
| 24>  H        5.0036250000    -2.6081350000    -0.0375290000 
| 25> *
| 26> 
| 27>                          ****END OF INPUT****
================================================================================

                       ****************************
                       * Single Point Calculation *
                       ****************************

--------------------------------
INTERNAL COORDINATES (ANGSTROEM)
--------------------------------
 N      0   0   0   0.000000     0.000     0.000
 C      1   0   0   1.366970     0.000     0.000
 C      2   1   0   1.350370   135.238     0.000
 C      3   2   1   1.447381   106.026   180.009
 C      4   3   2   1.350370   106.025     0.000
 N      5   4   3   1.366969   135.238   179.993
 O      2   1   3   1.363716   114.305   180.008
 H      1   2   3   0.998562   120.338   359.913
 H      1   2   3   0.999611   120.073   180.077
 H      3   2   1   1.077630   126.737     0.000
 H      4   3   2   1.077629   127.238   179.997
 H      6   5   4   0.998563   120.338     0.083
 H      6   5   4   0.999612   120.073   179.936

---------------------------
INTERNAL COORDINATES (A.U.)
---------------------------
 N      0   0   0   0.000000     0.000     0.000
 C      1   0   0   2.583199     0.000     0.000
 C      2   1   0   2.551830   135.238     0.000
 C      3   2   1   2.735154   106.026   180.009
 C      4   3   2   2.551830   106.025     0.000
 N      5   4   3   2.583198   135.238   179.993
 O      2   1   3   2.577051   114.305   180.008
 H      1   2   3   1.887008   120.338   359.913
 H      1   2   3   1.888992   120.073   180.077
 H      3   2   1   2.036425   126.737     0.000
 H      4   3   2   2.036423   127.238   179.997
 H      6   5   4   1.887010   120.338     0.083
 H      6   5   4   1.888993   120.073   179.936



           ************************************************************
           *        Program running with 2 parallel MPI-processes     *
           *              working on a common directory               *
           ************************************************************
------------------------------------------------------------------------------
                           ORCA GTO INTEGRAL CALCULATION
                           -- RI-GTO INTEGRALS CHOSEN --
------------------------------------------------------------------------------

                         BASIS SET STATISTICS AND STARTUP INFO

Gaussian basis set:
 # of primitive gaussian shells          ...  114
 # of primitive gaussian functions       ...  210
 # of contracted shells                  ...   60
 # of contracted basis functions         ...  128
 Highest angular momentum                ...    2
 Maximum contraction depth               ...    5
Auxiliary gaussian basis set:
 # of primitive gaussian shells          ...  216
 # of primitive gaussian functions       ...  586
 # of contracted shells                  ...  135
 # of contracted aux-basis functions     ...  409
 Highest angular momentum                ...    4
 Maximum contraction depth               ...    7
Ratio of auxiliary to basis functions    ...  3.20
Integral package used                  ... LIBINT
 One Electron integrals                  ... done
 Ordering auxiliary basis shells         ... done
 Integral threshhold             Thresh  ...  1.000e-10
 Primitive cut-off               TCut    ...  1.000e-11
 Pre-screening matrix                    ... done
 Shell pair data                         ... 
 Ordering of the shell pairs             ... done (   0.000 sec) 1749 of 1830 pairs
 Determination of significant pairs      ... done (   0.000 sec)
 Creation of shell pair data             ... done (   0.000 sec)
 Storage of shell pair data              ... done (   0.000 sec)
 Shell pair data done in (   0.001 sec)
 Computing two index integrals           ... done
 Cholesky decomposition of the V-matrix  ... done


Timings:
 Total evaluation time                   ...   0.159 sec (  0.003 min)
 One electron matrix time                ...   0.018 sec (  0.000 min) = 11.2%
 Schwartz matrix evaluation time         ...   0.077 sec (  0.001 min) = 48.4%
 Two index repulsion integral time       ...   0.003 sec (  0.000 min) =  2.1%
 Cholesky decomposition of V             ...   0.003 sec (  0.000 min) =  1.8%
 Three index repulsion integral time     ...   0.000 sec (  0.000 min) =  0.0%

           ************************************************************
           *              Shut down parallel processing               *
           ************************************************************


           ************************************************************
           *        Program running with 2 parallel MPI-processes     *
           *              working on a common directory               *
           ************************************************************
-------------------------------------------------------------------------------
                                 ORCA SCF
-------------------------------------------------------------------------------

------------
SCF SETTINGS
------------
Hamiltonian:
 Density Functional     Method          .... DFT(GTOs)
 Exchange Functional    Exchange        .... PBE
   PBE kappa parameter  XKappa          ....  0.804000
 Correlation Functional Correlation     .... PBE
 LDA part of GGA corr.  LDAOpt          .... PW91-LDA
 Gradients option       PostSCFGGA      .... off
   NL short-range parameter             ....  6.400000
 RI-approximation to the Coulomb term is turned on
   Number of auxiliary basis functions  .... 409


General Settings:
 Integral files         IntName         .... 6081
 Hartree-Fock type      HFTyp           .... RHF
 Total Charge           Charge          ....    0
 Multiplicity           Mult            ....    1
 Number of Electrons    NEL             ....   52
 Basis Dimension        Dim             ....  128
 Nuclear Repulsion      ENuc            ....    296.8964706849 Eh

Convergence Acceleration:
 DIIS                   CNVDIIS         .... on
   Start iteration      DIISMaxIt       ....    12
   Startup error        DIISStart       ....  0.200000
   # of expansion vecs  DIISMaxEq       ....     5
   Bias factor          DIISBfac        ....   1.050
   Max. coefficient     DIISMaxC        ....  10.000
 Newton-Raphson         CNVNR           .... off
 SOSCF                  CNVSOSCF        .... on
   Start iteration      SOSCFMaxIt      ....   150
   Startup grad/error   SOSCFStart      ....  0.003300
 Level Shifting         CNVShift        .... on
   Level shift para.    LevelShift      ....    0.2500
   Turn off err/grad.   ShiftErr        ....    0.0010
 Zerner damping         CNVZerner       .... off
 Static damping         CNVDamp         .... on
   Fraction old density DampFac         ....    0.7000
   Max. Damping (<1)    DampMax         ....    0.9800
   Min. Damping (>=0)   DampMin         ....    0.0000
   Turn off err/grad.   DampErr         ....    0.1000
 Fernandez-Rico         CNVRico         .... off

SCF Procedure:
 Maximum # iterations   MaxIter         ....   125
 SCF integral mode      SCFMode         .... Direct
   Integral package                     .... LIBINT
 Reset frequeny         DirectResetFreq ....    20
 Integral Threshold     Thresh          ....  1.000e-10 Eh
 Primitive CutOff       TCut            ....  1.000e-11 Eh

Convergence Tolerance:
 Convergence Check Mode ConvCheckMode   .... Total+1el-Energy
 Energy Change          TolE            ....  1.000e-06 Eh
 1-El. energy change                    ....  1.000e-03 Eh
 Orbital Gradient       TolG            ....  5.000e-05
 Orbital Rotation angle TolX            ....  5.000e-05
 DIIS Error             TolErr          ....  1.000e-06


Diagonalization of the overlap matrix:
Smallest eigenvalue                        ... 4.174e-04
Time for diagonalization                   ...    0.010 sec
Threshold for overlap eigenvalues          ... 1.000e-08
Number of eigenvalues below threshold      ... 0
Time for construction of square roots      ...    0.002 sec
Total time needed                          ...    0.013 sec

-------------------
DFT GRID GENERATION
-------------------

General Integration Accuracy     IntAcc      ...  4.340
Radial Grid Type                 RadialGrid  ... Gauss-Chebyshev
Angular Grid (max. acc.)         AngularGrid ... Lebedev-110
Angular grid pruning method      GridPruning ... 3 (G Style)
Weight generation scheme         WeightScheme... Becke
Basis function cutoff            BFCut       ...    1.0000e-10
Integration weight cutoff        WCut        ...    1.0000e-14
Grids for H and He will be reduced by one unit

# of grid points (after initial pruning)     ...  16508 (   0.0 sec)
# of grid points (after weights+screening)   ...  15544 (   0.0 sec)
nearest neighbour list constructed           ...    0.0 sec
Grid point re-assignment to atoms done       ...    0.0 sec
Grid point division into batches done        ...    0.0 sec
Reduced shell lists constructed in    0.1 sec

Total number of grid points                  ...    15544
Total number of batches                      ...      249
Average number of points per batch           ...       62
Average number of grid points per atom       ...     1196
Average number of shells per batch           ...    49.69 (82.82%)
Average number of basis functions per batch  ...   107.72 (84.16%)
Average number of large shells per batch     ...    41.09 (82.69%)
Average number of large basis fcns per batch ...    88.13 (81.82%)
Maximum spatial batch extension              ...   3.98,  6.30, 23.91 au
Average spatial batch extension              ...   0.92,  0.96,  2.02 au

Time for grid setup =    0.124 sec

------------------------------
INITIAL GUESS: MODEL POTENTIAL
------------------------------
Loading Hartree-Fock densities                     ... done
Calculating cut-offs                               ... done
Setting up the integral package                    ... done
Initializing the effective Hamiltonian             ... done
Starting the Coulomb interaction                   ... done (   0.0 sec)
Reading the grid                                   ... done
Mapping shells                                     ... done
Starting the XC term evaluation                    ... done (   0.1 sec)
  promolecular density results
     # of electrons  =     51.996832584
     EX              =    -43.530704617
     EC              =     -1.740831565
     EX+EC           =    -45.271536182
Transforming the Hamiltonian                       ... done (   0.0 sec)
Diagonalizing the Hamiltonian                      ... done (   0.0 sec)
Back transforming the eigenvectors                 ... done (   0.0 sec)
Now organizing SCF variables                       ... done
                      ------------------
                      INITIAL GUESS DONE (   0.3 sec)
                      ------------------
--------------
SCF ITERATIONS
--------------
ITER       Energy         Delta-E        Max-DP      RMS-DP      [F,P]     Damp
               ***  Starting incremental Fock matrix formation  ***
  0   -339.8618582168   0.000000000000 0.07824512  0.00298594  0.2121572 0.7000
  1   -339.9710682959  -0.109210079084 0.05347832  0.00198622  0.0956240 0.7000
                               ***Turning on DIIS***
  2   -340.0085707769  -0.037502480958 0.07658386  0.00293139  0.0271823 0.0000
  3   -340.0639196434  -0.055348866496 0.03664662  0.00137377  0.0538637 0.0000
  4   -340.0806942885  -0.016774645114 0.01089471  0.00047386  0.0134416 0.0000
                      *** Initiating the SOSCF procedure ***
                           *** Shutting down DIIS ***
                      *** Re-Reading the Fockian *** 
                      *** Removing any level shift *** 
ITER      Energy       Delta-E        Grad      Rot      Max-DP    RMS-DP
  5   -340.08174624  -0.0010519501  0.001275  0.001275  0.002979  0.000144
               *** Restarting incremental Fock matrix formation ***
  6   -340.08181512  -0.0000688844  0.000678  0.001945  0.003075  0.000107
  7   -340.08180545   0.0000096771  0.001348  0.001210  0.002400  0.000049
  8   -340.08182302  -0.0000175764  0.000187  0.000969  0.000808  0.000032
  9   -340.08182201   0.0000010144  0.000355  0.000614  0.000570  0.000018
 10   -340.08182351  -0.0000015012  0.000061  0.000131  0.000267  0.000009
 11   -340.08182336   0.0000001494  0.000108  0.000093  0.000198  0.000005
                  ***Gradient check signals convergence***
              ***Rediagonalizing the Fockian in SOSCF/NRSCF***

               *****************************************************
               *                     SUCCESS                       *
               *           SCF CONVERGED AFTER  12 CYCLES          *
               *****************************************************

Setting up the final grid:

General Integration Accuracy     IntAcc      ...  4.670
Radial Grid Type                 RadialGrid  ... Gauss-Chebyshev
Angular Grid (max. acc.)         AngularGrid ... Lebedev-302
Angular grid pruning method      GridPruning ... 3 (G Style)
Weight generation scheme         WeightScheme... Becke
Basis function cutoff            BFCut       ...    1.0000e-10
Integration weight cutoff        WCut        ...    1.0000e-14
Grids for H and He will be reduced by one unit

# of grid points (after initial pruning)     ...  63848 (   0.0 sec)
# of grid points (after weights+screening)   ...  59360 (   0.1 sec)
nearest neighbour list constructed           ...    0.0 sec
Grid point re-assignment to atoms done       ...    0.0 sec
Grid point division into batches done        ...    0.2 sec
Reduced shell lists constructed in    0.4 sec

Total number of grid points                  ...    59360
Total number of batches                      ...      935
Average number of points per batch           ...       63
Average number of grid points per atom       ...     4566
Average number of shells per batch           ...    46.67 (77.79%)
Average number of basis functions per batch  ...   100.40 (78.44%)
Average number of large shells per batch     ...    37.93 (81.26%)
Average number of large basis fcns per batch ...    80.65 (80.33%)
Maximum spatial batch extension              ...  13.31, 13.95, 23.05 au
Average spatial batch extension              ...   0.75,  0.78,  1.11 au

Final grid set up in    0.5 sec
Final integration                            ... done (   0.3 sec)
Change in XC energy                          ...    -0.001134451
Integrated number of electrons               ...    51.999995077
Previous integrated no of electrons          ...    51.999743273

----------------
TOTAL SCF ENERGY
----------------

Total Energy       :         -340.08295803 Eh           -9254.12776 eV

Components:
Nuclear Repulsion  :          296.89647068 Eh            8078.96369 eV
Electronic Energy  :         -636.97942872 Eh          -17333.09145 eV

One Electron Energy:        -1050.42734069 Eh          -28583.58110 eV
Two Electron Energy:          413.44791197 Eh           11250.48965 eV

Virial components:
Potential Energy   :         -677.22809739 Eh          -18428.31341 eV
Kinetic Energy     :          337.14513935 Eh            9174.18565 eV
Virial Ratio       :            2.00871381


DFT components:
N(Alpha)           :       25.999997538373 electrons
N(Beta)            :       25.999997538373 electrons
N(Total)           :       51.999995076746 electrons
E(X)               :      -44.252816611468 Eh       
E(C)               :       -1.764437762021 Eh       
E(XC)              :      -46.017254373490 Eh       

---------------
SCF CONVERGENCE
---------------

  Last Energy change         ...   -2.2318e-07  Tolerance :   1.0000e-06
  Last MAX-Density change    ...    5.1596e-05  Tolerance :   1.0000e-05
  Last RMS-Density change    ...    1.8994e-06  Tolerance :   1.0000e-06
  Last Orbital Gradient      ...    1.0978e-05  Tolerance :   5.0000e-05
  Last Orbital Rotation      ...    2.6091e-05  Tolerance :   5.0000e-05

             **** THE GBW FILE WAS UPDATED (6081.gbw) ****
             **** DENSITY FILE WAS UPDATED (6081.scfp.tmp) ****
             **** ENERGY FILE WAS UPDATED (6081.en.tmp) ****

                    ********************************
                    * MULLIKEN POPULATION ANALYSIS *
                    ********************************

-----------------------
MULLIKEN ATOMIC CHARGES
-----------------------
   0 N :   -0.065769
   1 C :    0.139435
   2 C :   -0.140106
   3 C :   -0.132849
   4 C :    0.136761
   5 N :   -0.067264
   6 O :   -0.219184
   7 H :    0.113602
   8 H :    0.111649
   9 H :   -0.051013
  10 H :   -0.050639
  11 H :    0.113174
  12 H :    0.112203
Sum of atomic charges:   -0.0000000

--------------------------------
MULLIKEN REDUCED ORBITAL CHARGES
--------------------------------
  0 N s       :     3.254380  s :     3.254380
      pz      :     1.779220  p :     3.798190
      px      :     1.033633
      py      :     0.985336
      dz2     :     0.001891  d :     0.013199
      dxz     :     0.003217
      dyz     :     0.000172
      dx2y2   :     0.003767
      dxy     :     0.004151
  1 C s       :     2.982230  s :     2.982230
      pz      :     1.085285  p :     2.787615
      px      :     0.818815
      py      :     0.883515
      dz2     :     0.006565  d :     0.090720
      dxz     :     0.019540
      dyz     :     0.013668
      dx2y2   :     0.024219
      dxy     :     0.026729
  2 C s       :     3.281277  s :     3.281277
      pz      :     1.189029  p :     2.827144
      px      :     0.880188
      py      :     0.757927
      dz2     :     0.002826  d :     0.031685
      dxz     :     0.007307
      dyz     :     0.003885
      dx2y2   :     0.006597
      dxy     :     0.011069
  3 C s       :     3.274492  s :     3.274492
      pz      :     1.187004  p :     2.826663
      px      :     0.762127
      py      :     0.877533
      dz2     :     0.002822  d :     0.031694
      dxz     :     0.004655
      dyz     :     0.006523
      dx2y2   :     0.010974
      dxy     :     0.006720
  4 C s       :     2.981639  s :     2.981639
      pz      :     1.085748  p :     2.790932
      px      :     0.782797
      py      :     0.922387
      dz2     :     0.006566  d :     0.090668
      dxz     :     0.015529
      dyz     :     0.017661
      dx2y2   :     0.024431
      dxy     :     0.026481
  5 N s       :     3.252380  s :     3.252380
      pz      :     1.780993  p :     3.801681
      px      :     1.001623
      py      :     1.019066
      dz2     :     0.001882  d :     0.013203
      dxz     :     0.001425
      dyz     :     0.001969
      dx2y2   :     0.004192
      dxy     :     0.003735
  6 O s       :     3.730229  s :     3.730229
      pz      :     1.715242  p :     4.470507
      px      :     1.233648
      py      :     1.521618
      dz2     :     0.002194  d :     0.018448
      dxz     :     0.003679
      dyz     :     0.002724
      dx2y2   :     0.004420
      dxy     :     0.005432
  7 H s       :     0.839224  s :     0.839224
      pz      :     0.015255  p :     0.047174
      px      :     0.014538
      py      :     0.017382
  8 H s       :     0.841456  s :     0.841456
      pz      :     0.015343  p :     0.046895
      px      :     0.009493
      py      :     0.022060
  9 H s       :     1.026447  s :     1.026447
      pz      :     0.007186  p :     0.024566
      px      :     0.004375
      py      :     0.013004
 10 H s       :     1.026088  s :     1.026088
      pz      :     0.007179  p :     0.024550
      px      :     0.010336
      py      :     0.007035
 11 H s       :     0.839738  s :     0.839738
      pz      :     0.015186  p :     0.047088
      px      :     0.023165
      py      :     0.008737
 12 H s       :     0.840989  s :     0.840989
      pz      :     0.015275  p :     0.046808
      px      :     0.009629
      py      :     0.021904


                     *******************************
                     * LOEWDIN POPULATION ANALYSIS *
                     *******************************

----------------------
LOEWDIN ATOMIC CHARGES
----------------------
   0 N :   -0.024035
   1 C :    0.028697
   2 C :   -0.155561
   3 C :   -0.154765
   4 C :    0.028411
   5 N :   -0.025196
   6 O :   -0.023020
   7 H :    0.074881
   8 H :    0.070216
   9 H :    0.017549
  10 H :    0.017829
  11 H :    0.074674
  12 H :    0.070322

-------------------------------
LOEWDIN REDUCED ORBITAL CHARGES
-------------------------------
  0 N s       :     3.006490  s :     3.006490
      pz      :     1.699410  p :     3.977863
      px      :     1.137465
      py      :     1.140988
      dz2     :     0.003099  d :     0.039681
      dxz     :     0.006463
      dyz     :     0.000288
      dx2y2   :     0.014101
      dxy     :     0.015731
  1 C s       :     2.822491  s :     2.822491
      pz      :     1.070320  p :     2.942642
      px      :     0.919593
      py      :     0.952729
      dz2     :     0.013448  d :     0.206170
      dxz     :     0.039843
      dyz     :     0.028799
      dx2y2   :     0.058315
      dxy     :     0.065766
  2 C s       :     2.853871  s :     2.853871
      pz      :     1.163982  p :     3.212947
      px      :     1.021609
      py      :     1.027356
      dz2     :     0.006844  d :     0.088744
      dxz     :     0.016197
      dyz     :     0.006837
      dx2y2   :     0.024867
      dxy     :     0.033999
  3 C s       :     2.853752  s :     2.853752
      pz      :     1.162849  p :     3.212278
      px      :     1.017221
      py      :     1.032209
      dz2     :     0.006847  d :     0.088735
      dxz     :     0.009112
      dyz     :     0.013941
      dx2y2   :     0.034893
      dxy     :     0.023943
  4 C s       :     2.822433  s :     2.822433
      pz      :     1.070684  p :     2.942939
      px      :     0.832754
      py      :     1.039501
      dz2     :     0.013449  d :     0.206218
      dxz     :     0.030863
      dyz     :     0.037764
      dx2y2   :     0.059392
      dxy     :     0.064749
  5 N s       :     3.006332  s :     3.006332
      pz      :     1.700454  p :     3.979213
      px      :     1.141226
      py      :     1.137533
      dz2     :     0.003097  d :     0.039651
      dxz     :     0.002871
      dyz     :     0.003890
      dx2y2   :     0.016003
      dxy     :     0.013789
  6 O s       :     3.431075  s :     3.431075
      pz      :     1.693880  p :     4.556701
      px      :     1.293154
      py      :     1.569666
      dz2     :     0.003947  d :     0.035245
      dxz     :     0.007012
      dyz     :     0.003277
      dx2y2   :     0.009345
      dxy     :     0.011664
  7 H s       :     0.796821  s :     0.796821
      pz      :     0.046924  p :     0.128298
      px      :     0.036424
      py      :     0.044950
  8 H s       :     0.800261  s :     0.800261
      pz      :     0.047135  p :     0.129522
      px      :     0.022311
      py      :     0.060076
  9 H s       :     0.908836  s :     0.908836
      pz      :     0.021537  p :     0.073615
      px      :     0.014358
      py      :     0.037720
 10 H s       :     0.908572  s :     0.908572
      pz      :     0.021476  p :     0.073600
      px      :     0.031473
      py      :     0.020651
 11 H s       :     0.797013  s :     0.797013
      pz      :     0.046958  p :     0.128314
      px      :     0.062945
      py      :     0.018411
 12 H s       :     0.800109  s :     0.800109
      pz      :     0.047168  p :     0.129569
      px      :     0.021488
      py      :     0.060913


                      *****************************
                      * MAYER POPULATION ANALYSIS *
                      *****************************

  NA   - Mulliken gross atomic population
  ZA   - Total nuclear charge
  QA   - Mulliken gross atomic charge
  VA   - Mayer's total valence
  BVA  - Mayer's bonded valence
  FA   - Mayer's free valence

  ATOM       NA         ZA         QA         VA         BVA        FA
  0 N      7.0658     7.0000    -0.0658     3.1837     3.1837    -0.0000
  1 C      5.8606     6.0000     0.1394     4.0234     4.0234     0.0000
  2 C      6.1401     6.0000    -0.1401     3.7409     3.7409     0.0000
  3 C      6.1328     6.0000    -0.1328     3.7411     3.7411     0.0000
  4 C      5.8632     6.0000     0.1368     4.0332     4.0332     0.0000
  5 N      7.0673     7.0000    -0.0673     3.1797     3.1797     0.0000
  6 O      8.2192     8.0000    -0.2192     2.3314     2.3314     0.0000
  7 H      0.8864     1.0000     0.1136     1.0042     1.0042    -0.0000
  8 H      0.8884     1.0000     0.1116     1.0162     1.0162    -0.0000
  9 H      1.0510     1.0000    -0.0510     0.9926     0.9926     0.0000
 10 H      1.0506     1.0000    -0.0506     0.9925     0.9925     0.0000
 11 H      0.8868     1.0000     0.1132     1.0044     1.0044    -0.0000
 12 H      0.8878     1.0000     0.1122     1.0159     1.0159     0.0000

  Mayer bond orders larger than 0.1
B(  0-N ,  1-C ) :   1.1955 B(  0-N ,  7-H ) :   0.9568 B(  0-N ,  8-H ) :   0.9435 
B(  1-C ,  2-C ) :   1.5368 B(  1-C ,  6-O ) :   1.0972 B(  2-C ,  3-C ) :   1.0649 
B(  2-C ,  9-H ) :   1.0267 B(  3-C ,  4-C ) :   1.5430 B(  3-C , 10-H ) :   1.0242 
B(  4-C ,  5-N ) :   1.1940 B(  4-C ,  6-O ) :   1.0974 B(  5-N , 11-H ) :   0.9561 
B(  5-N , 12-H ) :   0.9430 


 *********************************** NBO 6.0 ***********************************
             N A T U R A L   A T O M I C   O R B I T A L   A N D
          N A T U R A L   B O N D   O R B I T A L   A N A L Y S I S
 ***************************** Kiya KiyaLu (100703) ****************************
  (c) Copyright 1996-2015 Board of Regents of the University of Wisconsin System
      on behalf of the Theoretical Chemistry Institute.  All rights reserved.

          Cite this program as:

          NBO 6.0.  E. D. Glendening, J. K. Badenhoop, A. E. Reed,
          J. E. Carpenter, J. A. Bohmann, C. M. Morales, C. R. Landis,
          and F. Weinhold (Theoretical Chemistry Institute, University
          of Wisconsin, Madison, WI, 2013); http://nbo6.chem.wisc.edu/

       /NPA    / : Natural Population Analysis
       /NBO    / : Natural Bond Orbital Analysis
       /AONBO  / : Write the AO to NBO transformation to lfn77
       /FILE   / : Set to 6081

 Filename set to 6081

 Job title:  *** NBO job generated by orca_scf

 Warning: MOs are non-orthogonal; program will continue

 Warning: -4170.78768 electrons reside outside the linearly independent MO space


 NATURAL POPULATIONS:  Natural atomic orbital occupancies

  NAO Atom No lang   Type(AO)    Occupancy      Energy
 -------------------------------------------------------
   1    N  1  s      Cor( 1s)     1.99925     -13.85589
   2    N  1  s      Val( 2s)     1.28185      -0.46603
   3    N  1  s      Ryd( 3s)     0.00032       1.08396
   4    N  1  px     Val( 2p)     1.32815      -0.19813
   5    N  1  px     Ryd( 3p)     0.00233       0.89039
   6    N  1  py     Val( 2p)     1.39280      -0.18460
   7    N  1  py     Ryd( 3p)     0.00193       1.19909
   8    N  1  pz     Val( 2p)     1.82365      -0.19632
   9    N  1  pz     Ryd( 3p)     0.00512       0.74381
  10    N  1  dxy    Ryd( 3d)     0.00053       2.83383
  11    N  1  dxz    Ryd( 3d)     0.00039       2.25135
  12    N  1  dyz    Ryd( 3d)     0.00004       2.23798
  13    N  1  dx2y2  Ryd( 3d)     0.00055       2.77965
  14    N  1  dz2    Ryd( 3d)     0.00081       2.58786

  15    C  2  s      Cor( 1s)     1.99872      -9.83063
  16    C  2  s      Val( 2s)     0.76040      -0.08074
  17    C  2  s      Ryd( 3s)     0.00313       0.54652
  18    C  2  px     Val( 2p)     0.82068      -0.00128
  19    C  2  px     Ryd( 3p)     0.00478       0.75211
  20    C  2  py     Val( 2p)     0.83971      -0.01481
  21    C  2  py     Ryd( 3p)     0.00785       0.68250
  22    C  2  pz     Val( 2p)     1.07889      -0.09631
  23    C  2  pz     Ryd( 3p)     0.00208       0.54197
  24    C  2  dxy    Ryd( 3d)     0.00188       2.43645
  25    C  2  dxz    Ryd( 3d)     0.00225       1.87163
  26    C  2  dyz    Ryd( 3d)     0.00155       1.86314
  27    C  2  dx2y2  Ryd( 3d)     0.00197       2.32304
  28    C  2  dz2    Ryd( 3d)     0.00094       2.13163

  29    C  3  s      Cor( 1s)     1.99889      -9.73028
  30    C  3  s      Val( 2s)     0.94249      -0.09723
  31    C  3  s      Ryd( 3s)     0.00139       0.54021
  32    C  3  px     Val( 2p)     1.05814      -0.01844
  33    C  3  px     Ryd( 3p)     0.00289       0.65468
  34    C  3  py     Val( 2p)     1.19104      -0.01972
  35    C  3  py     Ryd( 3p)     0.00432       0.90025
  36    C  3  pz     Val( 2p)     1.20226      -0.07048
  37    C  3  pz     Ryd( 3p)     0.00232       0.54192
  38    C  3  dxy    Ryd( 3d)     0.00084       2.42144
  39    C  3  dxz    Ryd( 3d)     0.00074       1.85997
  40    C  3  dyz    Ryd( 3d)     0.00066       1.91244
  41    C  3  dx2y2  Ryd( 3d)     0.00042       2.39750
  42    C  3  dz2    Ryd( 3d)     0.00064       2.19885

  43    C  4  s      Cor( 1s)     1.99889      -9.73033
  44    C  4  s      Val( 2s)     0.94260      -0.09735
  45    C  4  s      Ryd( 3s)     0.00130       0.54250
  46    C  4  px     Val( 2p)     1.14393      -0.01725
  47    C  4  px     Ryd( 3p)     0.00313       0.86443
  48    C  4  py     Val( 2p)     1.10547      -0.02092
  49    C  4  py     Ryd( 3p)     0.00369       0.69491
  50    C  4  pz     Val( 2p)     1.20140      -0.07057
  51    C  4  pz     Ryd( 3p)     0.00225       0.54355
  52    C  4  dxy    Ryd( 3d)     0.00045       2.38814
  53    C  4  dxz    Ryd( 3d)     0.00059       1.86730
  54    C  4  dyz    Ryd( 3d)     0.00081       1.90054
  55    C  4  dx2y2  Ryd( 3d)     0.00081       2.41607
  56    C  4  dz2    Ryd( 3d)     0.00066       2.19330

  57    C  5  s      Cor( 1s)     1.99872      -9.83058
  58    C  5  s      Val( 2s)     0.76055      -0.08038
  59    C  5  s      Ryd( 3s)     0.00298       0.54633
  60    C  5  px     Val( 2p)     0.68196      -0.00021
  61    C  5  px     Ryd( 3p)     0.00490       0.73598
  62    C  5  py     Val( 2p)     0.97853      -0.01552
  63    C  5  py     Ryd( 3p)     0.00747       0.69542
  64    C  5  pz     Val( 2p)     1.07938      -0.09633
  65    C  5  pz     Ryd( 3p)     0.00215       0.54184
  66    C  5  dxy    Ryd( 3d)     0.00212       2.35199
  67    C  5  dxz    Ryd( 3d)     0.00183       1.82934
  68    C  5  dyz    Ryd( 3d)     0.00197       1.90640
  69    C  5  dx2y2  Ryd( 3d)     0.00172       2.40835
  70    C  5  dz2    Ryd( 3d)     0.00095       2.13161

  71    N  6  s      Cor( 1s)     1.99925     -13.85584
  72    N  6  s      Val( 2s)     1.28207      -0.46625
  73    N  6  s      Ryd( 3s)     0.00036       1.08015
  74    N  6  px     Val( 2p)     1.36641      -0.19109
  75    N  6  px     Ryd( 3p)     0.00209       1.06628
  76    N  6  py     Val( 2p)     1.35535      -0.19221
  77    N  6  py     Ryd( 3p)     0.00193       1.02217
  78    N  6  pz     Val( 2p)     1.82439      -0.19629
  79    N  6  pz     Ryd( 3p)     0.00521       0.74121
  80    N  6  dxy    Ryd( 3d)     0.00057       2.77790
  81    N  6  dxz    Ryd( 3d)     0.00017       2.24415
  82    N  6  dyz    Ryd( 3d)     0.00025       2.24635
  83    N  6  dx2y2  Ryd( 3d)     0.00049       2.85088
  84    N  6  dz2    Ryd( 3d)     0.00080       2.59572

  85    O  7  s      Cor( 1s)     1.99963     -18.57994
  86    O  7  s      Val( 2s)     1.58213      -0.78471
  87    O  7  s      Ryd( 3s)     0.00033       1.56262
  88    O  7  px     Val( 2p)     1.44398      -0.29305
  89    O  7  px     Ryd( 3p)     0.00097       1.38676
  90    O  7  py     Val( 2p)     1.71797      -0.30164
  91    O  7  py     Ryd( 3p)     0.00135       1.18414
  92    O  7  pz     Val( 2p)     1.75340      -0.26444
  93    O  7  pz     Ryd( 3p)     0.00057       1.01402
  94    O  7  dxy    Ryd( 3d)     0.00144       3.02304
  95    O  7  dxz    Ryd( 3d)     0.00059       2.61701
  96    O  7  dyz    Ryd( 3d)     0.00129       2.59250
  97    O  7  dx2y2  Ryd( 3d)     0.00131       2.93741
  98    O  7  dz2    Ryd( 3d)     0.00086       2.83969

  99    H  8  s      Val( 1s)     0.59898       0.09077
 100    H  8  s      Ryd( 2s)     0.00107       0.34709
 101    H  8  px     Ryd( 2p)     0.00065       2.06844
 102    H  8  py     Ryd( 2p)     0.00080       2.16130
 103    H  8  pz     Ryd( 2p)     0.00077       1.60951

 104    H  9  s      Val( 1s)     0.59969       0.08866
 105    H  9  s      Ryd( 2s)     0.00237       0.34922
 106    H  9  px     Ryd( 2p)     0.00032       1.87800
 107    H  9  py     Ryd( 2p)     0.00115       2.32637
 108    H  9  pz     Ryd( 2p)     0.00078       1.60209

 109    H 10  s      Val( 1s)     0.76841       0.09616
 110    H 10  s      Ryd( 2s)     0.00100       0.31849
 111    H 10  px     Ryd( 2p)     0.00013       1.94583
 112    H 10  py     Ryd( 2p)     0.00083       2.33882
 113    H 10  pz     Ryd( 2p)     0.00033       1.63691

 114    H 11  s      Val( 1s)     0.76823       0.09650
 115    H 11  s      Ryd( 2s)     0.00098       0.31764
 116    H 11  px     Ryd( 2p)     0.00059       2.25102
 117    H 11  py     Ryd( 2p)     0.00032       2.05292
 118    H 11  pz     Ryd( 2p)     0.00034       1.64130

 119    H 12  s      Val( 1s)     0.59897       0.09003
 120    H 12  s      Ryd( 2s)     0.00109       0.34834
 121    H 12  px     Ryd( 2p)     0.00124       2.38685
 122    H 12  py     Ryd( 2p)     0.00026       1.82175
 123    H 12  pz     Ryd( 2p)     0.00075       1.60651

 124    H 13  s      Val( 1s)     0.59945       0.08884
 125    H 13  s      Ryd( 2s)     0.00230       0.35184
 126    H 13  px     Ryd( 2p)     0.00032       1.86920
 127    H 13  py     Ryd( 2p)     0.00116       2.33242
 128    H 13  pz     Ryd( 2p)     0.00077       1.60193

   1 low occupancy (<1.9990e) core orbital  found on  C  2
   1 low occupancy (<1.9990e) core orbital  found on  C  3
   1 low occupancy (<1.9990e) core orbital  found on  C  4
   1 low occupancy (<1.9990e) core orbital  found on  C  5


 Summary of Natural Population Analysis:

                                     Natural Population
             Natural    ---------------------------------------------
  Atom No    Charge        Core      Valence    Rydberg      Total
 --------------------------------------------------------------------
    N  1   -0.83773      1.99925     5.82645    0.01203     7.83773
    C  2    0.47518      1.99872     3.49968    0.02643     5.52482
    C  3   -0.40704      1.99889     4.39393    0.01421     6.40704
    C  4   -0.40597      1.99889     4.39340    0.01368     6.40597
    C  5    0.47478      1.99872     3.50042    0.02609     5.52522
    N  6   -0.83935      1.99925     5.82822    0.01187     7.83935
    O  7   -0.50583      1.99963     6.49748    0.00873     8.50583
    H  8    0.39773      0.00000     0.59898    0.00329     0.60227
    H  9    0.39569      0.00000     0.59969    0.00462     0.60431
    H 10    0.22931      0.00000     0.76841    0.00228     0.77069
    H 11    0.22953      0.00000     0.76823    0.00223     0.77047
    H 12    0.39769      0.00000     0.59897    0.00334     0.60231
    H 13    0.39601      0.00000     0.59945    0.00455     0.60399
 ====================================================================
 * Total *  0.00000     13.99335    37.87330    0.13335    52.00000

                                 Natural Population
 ---------------------------------------------------------
   Core                      13.99335 ( 99.9525% of   14)
   Valence                   37.87330 ( 99.6666% of   38)
   Natural Minimal Basis     51.86665 ( 99.7436% of   52)
   Natural Rydberg Basis      0.13335 (  0.2564% of   52)
 ---------------------------------------------------------

    Atom No         Natural Electron Configuration
 ----------------------------------------------------------------------------
      N  1      [core]2s( 1.28)2p( 4.54)3p( 0.01)
      C  2      [core]2s( 0.76)2p( 2.74)3p( 0.01)3d( 0.01)
      C  3      [core]2s( 0.94)2p( 3.45)3p( 0.01)
      C  4      [core]2s( 0.94)2p( 3.45)3p( 0.01)
      C  5      [core]2s( 0.76)2p( 2.74)3p( 0.01)3d( 0.01)
      N  6      [core]2s( 1.28)2p( 4.55)3p( 0.01)
      O  7      [core]2s( 1.58)2p( 4.92)3d( 0.01)
      H  8            1s( 0.60)
      H  9            1s( 0.60)
      H 10            1s( 0.77)
      H 11            1s( 0.77)
      H 12            1s( 0.60)
      H 13            1s( 0.60)


 NATURAL BOND ORBITAL ANALYSIS:

                            Occupancies       Lewis Structure    Low   High
         Max    Occ     -------------------  -----------------   occ   occ
  Cycle  Ctr   Thresh    Lewis   non-Lewis     CR  BD  nC  LP    (L)   (NL)
 ============================================================================
    1     2     1.90    50.93776   1.06224      7  15   0   4     3      2
    2     2     1.82    50.93776   1.06224      7  15   0   4     1      2
    3     2     1.75    50.93776   1.06224      7  15   0   4     0      2
    4     2     1.65    50.93776   1.06224      7  15   0   4     0      2
    5     3     1.90    50.01433   1.98567      7  16   2   1     2      2
    6     2     1.90    50.93776   1.06224      7  15   0   4     3      2
 ----------------------------------------------------------------------------

 Strongly delocalized structure accepted

 -------------------------------------------------------
   Core                     13.99335 ( 99.952% of  14)
   Valence Lewis            36.94441 ( 97.222% of  38)
  ==================      =============================
   Total Lewis              50.93776 ( 97.957% of  52)
  -----------------------------------------------------
   Valence non-Lewis         0.98015 (  1.885% of  52)
   Rydberg non-Lewis         0.08209 (  0.158% of  52)
  ==================      =============================
   Total non-Lewis           1.06224 (  2.043% of  52)
 -------------------------------------------------------


     (Occupancy)   Bond orbital / Coefficients / Hybrids
 ------------------ Lewis ------------------------------------------------------
   1. (1.99925) CR ( 1) N  1            s(100.00%)
                                         1.0000  0.0000  0.0000  0.0000  0.0000
                                         0.0000  0.0000  0.0000  0.0000  0.0000
                                         0.0000  0.0000  0.0000  0.0000
   2. (1.99872) CR ( 1) C  2            s(100.00%)
                                         1.0000  0.0000  0.0000  0.0000  0.0000
                                         0.0000  0.0000  0.0000  0.0000  0.0000
                                         0.0000  0.0000  0.0000  0.0000
   3. (1.99889) CR ( 1) C  3            s(100.00%)
                                         1.0000  0.0000  0.0000  0.0000  0.0000
                                         0.0000  0.0000  0.0000  0.0000  0.0000
                                         0.0000  0.0000  0.0000  0.0000
   4. (1.99889) CR ( 1) C  4            s(100.00%)
                                         1.0000  0.0000  0.0000  0.0000  0.0000
                                         0.0000  0.0000  0.0000  0.0000  0.0000
                                         0.0000  0.0000  0.0000  0.0000
   5. (1.99872) CR ( 1) C  5            s(100.00%)
                                         1.0000  0.0000  0.0000  0.0000  0.0000
                                         0.0000  0.0000  0.0000  0.0000  0.0000
                                         0.0000  0.0000  0.0000  0.0000
   6. (1.99925) CR ( 1) N  6            s(100.00%)
                                         1.0000  0.0000  0.0000  0.0000  0.0000
                                         0.0000  0.0000  0.0000  0.0000  0.0000
                                         0.0000  0.0000  0.0000  0.0000
   7. (1.99963) CR ( 1) O  7            s(100.00%)
                                         1.0000  0.0000  0.0000  0.0000  0.0000
                                         0.0000  0.0000  0.0000  0.0000  0.0000
                                         0.0000  0.0000  0.0000  0.0000
   8. (1.82597) LP ( 1) N  1            s(  0.00%)p 1.00(100.00%)d 0.00(  0.00%)
                                         0.0000  0.0007  0.0000  0.0048  0.0001
                                        -0.0021 -0.0001 -0.9994 -0.0352  0.0000
                                        -0.0050 -0.0006  0.0000 -0.0001
   9. (1.82677) LP ( 1) N  6            s(  0.00%)p 1.00(100.00%)d 0.00(  0.00%)
                                         0.0000  0.0012 -0.0001  0.0047  0.0002
                                        -0.0016 -0.0001 -0.9993 -0.0356  0.0000
                                         0.0037 -0.0037  0.0000  0.0000
  10. (1.96057) LP ( 1) O  7            s( 34.93%)p 1.86( 65.03%)d 0.00(  0.05%)
                                         0.0000  0.5910 -0.0014 -0.2658  0.0019
                                        -0.7613  0.0078  0.0003  0.0000 -0.0124
                                         0.0000  0.0000  0.0158  0.0085
  11. (1.75471) LP ( 2) O  7            s(  0.00%)p 1.00( 99.93%)d 0.00(  0.07%)
                                         0.0000 -0.0001  0.0000 -0.0051 -0.0001
                                         0.0021  0.0000  0.9996  0.0028 -0.0001
                                         0.0089  0.0255 -0.0001  0.0000
  12. (1.98962) BD ( 1) N  1- C  2
               ( 60.78%)   0.7796* N  1 s( 40.49%)p 1.47( 59.45%)d 0.00(  0.05%)
                                         0.0000  0.6363  0.0017  0.7591 -0.0074
                                         0.1348 -0.0026  0.0038  0.0000  0.0046
                                         0.0002  0.0000  0.0146 -0.0172
               ( 39.22%)   0.6262* C  2 s( 32.44%)p 2.08( 67.45%)d 0.00(  0.11%)
                                         0.0000  0.5689  0.0274 -0.8104 -0.0321
                                        -0.1282 -0.0162 -0.0038 -0.0002  0.0136
                                         0.0002  0.0000  0.0231 -0.0185
  13. (1.98649) BD ( 1) N  1- H  8
               ( 69.97%)   0.8365* N  1 s( 29.68%)p 2.37( 70.28%)d 0.00(  0.04%)
                                         0.0000  0.5448  0.0001 -0.5661  0.0282
                                         0.6176 -0.0061 -0.0036  0.0001 -0.0144
                                         0.0001 -0.0001 -0.0046 -0.0130
               ( 30.03%)   0.5480* H  8 s( 99.81%)p 0.00(  0.19%)
                                         0.9990 -0.0007  0.0286 -0.0332  0.0002
  14. (1.98882) BD ( 1) N  1- H  9
               ( 70.04%)   0.8369* N  1 s( 29.71%)p 2.36( 70.26%)d 0.00(  0.04%)
                                         0.0000  0.5450 -0.0007 -0.3192  0.0250
                                        -0.7745  0.0147  0.0005  0.0000  0.0074
                                         0.0000 -0.0001 -0.0122 -0.0128
               ( 29.96%)   0.5474* H  9 s( 99.80%)p 0.00(  0.20%)
                                         0.9990 -0.0032  0.0153  0.0419 -0.0001
  15. (1.97675) BD ( 1) C  2- C  3
               ( 50.32%)   0.7093* C  2 s( 43.60%)p 1.29( 56.36%)d 0.00(  0.04%)
                                         0.0000  0.6601 -0.0158  0.3609 -0.0397
                                         0.6571  0.0050  0.0005 -0.0002  0.0133
                                         0.0001  0.0000 -0.0029 -0.0131
               ( 49.68%)   0.7049* C  3 s( 34.92%)p 1.86( 65.01%)d 0.00(  0.07%)
                                         0.0000  0.5908  0.0114 -0.5421 -0.0346
                                        -0.5958  0.0097 -0.0014 -0.0002  0.0173
                                         0.0001  0.0000 -0.0078 -0.0176
  16. (1.91004) BD ( 2) C  2- C  3
               ( 45.96%)   0.6779* C  2 s(  0.00%)p 1.00( 99.93%)d 0.00(  0.07%)
                                         0.0000  0.0001  0.0001  0.0050  0.0000
                                        -0.0020  0.0001 -0.9994  0.0241  0.0000
                                        -0.0196 -0.0168  0.0001 -0.0001
               ( 54.04%)   0.7351* C  3 s(  0.00%)p 1.00( 99.93%)d 0.00(  0.07%)
                                         0.0000  0.0000  0.0001  0.0050 -0.0001
                                        -0.0021  0.0000 -0.9994  0.0218 -0.0001
                                         0.0111  0.0242 -0.0001  0.0000
  17. (1.98314) BD ( 1) C  2- O  7
               ( 30.27%)   0.5501* C  2 s( 23.58%)p 3.23( 76.16%)d 0.01(  0.26%)
                                         0.0000  0.4856 -0.0020  0.4591 -0.0167
                                        -0.7405 -0.0470  0.0038  0.0000 -0.0378
                                         0.0002 -0.0003 -0.0178 -0.0285
               ( 69.73%)   0.8351* O  7 s( 32.53%)p 2.07( 67.39%)d 0.00(  0.08%)
                                         0.0000  0.5703  0.0018 -0.5293 -0.0133
                                         0.6273 -0.0074 -0.0039  0.0000 -0.0171
                                         0.0001 -0.0002 -0.0165 -0.0160
  18. (1.95042) BD ( 1) C  3- C  4
               ( 49.96%)   0.7068* C  3 s( 33.11%)p 2.02( 66.85%)d 0.00(  0.05%)
                                         0.0000  0.5753  0.0067  0.8010  0.0120
                                        -0.1582  0.0402  0.0043  0.0000 -0.0131
                                         0.0002 -0.0001  0.0068 -0.0161
               ( 50.04%)   0.7074* C  4 s( 33.14%)p 2.02( 66.81%)d 0.00(  0.05%)
                                         0.0000  0.5756  0.0096 -0.7256  0.0114
                                         0.3742  0.0374 -0.0044  0.0000 -0.0036
                                         0.0002  0.0000  0.0143 -0.0162
  19. (1.97833) BD ( 1) C  3- H 10
               ( 61.58%)   0.7847* C  3 s( 31.80%)p 2.14( 68.18%)d 0.00(  0.02%)
                                         0.0000  0.5637 -0.0134 -0.2504  0.0044
                                         0.7867  0.0134 -0.0029  0.0000 -0.0084
                                         0.0001 -0.0001 -0.0083 -0.0102
               ( 38.42%)   0.6198* H 10 s( 99.90%)p 0.00(  0.10%)
                                         0.9995 -0.0004  0.0088 -0.0300  0.0001
  20. (1.97678) BD ( 1) C  4- C  5
               ( 49.60%)   0.7043* C  4 s( 34.89%)p 1.86( 65.04%)d 0.00(  0.07%)
                                         0.0000  0.5907  0.0078  0.0540  0.0343
                                        -0.8039 -0.0104  0.0020  0.0002  0.0038
                                         0.0001 -0.0001 -0.0186 -0.0179
               ( 50.40%)   0.7099* C  5 s( 43.63%)p 1.29( 56.34%)d 0.00(  0.04%)
                                         0.0000  0.6604 -0.0143  0.1255  0.0336
                                         0.7390 -0.0173 -0.0008  0.0002 -0.0001
                                         0.0000 -0.0001 -0.0135 -0.0132
  21. (1.91022) BD ( 2) C  4- C  5
               ( 53.99%)   0.7348* C  4 s(  0.00%)p 1.00( 99.93%)d 0.00(  0.07%)
                                         0.0000  0.0001  0.0000  0.0050 -0.0001
                                        -0.0022  0.0000 -0.9994  0.0215 -0.0001
                                         0.0063  0.0257 -0.0001  0.0000
               ( 46.01%)   0.6783* C  5 s(  0.00%)p 1.00( 99.93%)d 0.00(  0.07%)
                                         0.0000  0.0002  0.0000  0.0051  0.0000
                                        -0.0021 -0.0001 -0.9993  0.0249  0.0001
                                         0.0050 -0.0253  0.0000  0.0001
  22. (1.97823) BD ( 1) C  4- H 11
               ( 61.59%)   0.7848* C  4 s( 31.79%)p 2.14( 68.18%)d 0.00(  0.03%)
                                         0.0000  0.5637 -0.0128  0.6854  0.0052
                                         0.4603  0.0123  0.0025  0.0000  0.0103
                                         0.0001  0.0000  0.0068 -0.0103
               ( 38.41%)   0.6198* H 11 s( 99.91%)p 0.00(  0.09%)
                                         0.9995 -0.0005 -0.0249 -0.0178 -0.0001
  23. (1.98936) BD ( 1) C  5- N  6
               ( 39.14%)   0.6256* C  5 s( 32.47%)p 2.08( 67.42%)d 0.00(  0.11%)
                                         0.0000  0.5692  0.0275  0.5551  0.0122
                                        -0.6041 -0.0310  0.0042  0.0001 -0.0258
                                         0.0002 -0.0002 -0.0081 -0.0184
               ( 60.86%)   0.7801* N  6 s( 40.52%)p 1.47( 59.43%)d 0.00(  0.05%)
                                         0.0000  0.6366  0.0039 -0.5108  0.0044
                                         0.5773 -0.0088 -0.0026  0.0000 -0.0153
                                         0.0001 -0.0001 -0.0011 -0.0169
  24. (1.98321) BD ( 1) C  5- O  7
               ( 30.27%)   0.5502* C  5 s( 23.54%)p 3.24( 76.20%)d 0.01(  0.26%)
                                         0.0000  0.4852 -0.0056 -0.8198 -0.0148
                                        -0.2949 -0.0517 -0.0035  0.0000  0.0262
                                         0.0004  0.0001  0.0327 -0.0287
               ( 69.73%)   0.8351* O  7 s( 32.51%)p 2.07( 67.40%)d 0.00(  0.08%)
                                         0.0000  0.5702  0.0023  0.8049  0.0054
                                         0.1612 -0.0121  0.0038  0.0001  0.0198
                                         0.0002  0.0001  0.0130 -0.0158
  25. (1.98633) BD ( 1) N  6- H 12
               ( 69.96%)   0.8365* N  6 s( 29.67%)p 2.37( 70.30%)d 0.00(  0.04%)
                                         0.0000  0.5447 -0.0010  0.8275 -0.0258
                                         0.1318  0.0129  0.0043 -0.0002  0.0074
                                         0.0002  0.0000  0.0125 -0.0128
               ( 30.04%)   0.5480* H 12 s( 99.80%)p 0.00(  0.20%)
                                         0.9990 -0.0006 -0.0439 -0.0085 -0.0002
  26. (1.98865) BD ( 1) N  6- H 13
               ( 70.05%)   0.8369* N  6 s( 29.70%)p 2.37( 70.27%)d 0.00(  0.04%)
                                         0.0000  0.5449 -0.0018 -0.2313 -0.0110
                                        -0.8052  0.0267  0.0009 -0.0001  0.0101
                                         0.0000 -0.0001 -0.0100 -0.0128
               ( 29.95%)   0.5473* H 13 s( 99.80%)p 0.00(  0.20%)
                                         0.9990 -0.0030  0.0142  0.0424 -0.0001
 ---------------- non-Lewis ----------------------------------------------------
  27. (0.02801) BD*( 1) N  1- C  2
               ( 39.22%)   0.6262* N  1 s( 40.49%)p 1.47( 59.45%)d 0.00(  0.05%)
                                         0.0000 -0.6363 -0.0017 -0.7591  0.0074
                                        -0.1348  0.0026 -0.0038  0.0000 -0.0046
                                        -0.0002  0.0000 -0.0146  0.0172
               ( 60.78%)  -0.7796* C  2 s( 32.44%)p 2.08( 67.45%)d 0.00(  0.11%)
                                         0.0000 -0.5689 -0.0274  0.8104  0.0321
                                         0.1282  0.0162  0.0038  0.0002 -0.0136
                                        -0.0002  0.0000 -0.0231  0.0185
  28. (0.00513) BD*( 1) N  1- H  8
               ( 30.03%)   0.5480* N  1 s( 29.68%)p 2.37( 70.28%)d 0.00(  0.04%)
                                         0.0000 -0.5448 -0.0001  0.5661 -0.0282
                                        -0.6176  0.0061  0.0036 -0.0001  0.0144
                                        -0.0001  0.0001  0.0046  0.0130
               ( 69.97%)  -0.8365* H  8 s( 99.81%)p 0.00(  0.19%)
                                        -0.9990  0.0007 -0.0286  0.0332 -0.0002
  29. (0.00717) BD*( 1) N  1- H  9
               ( 29.96%)   0.5474* N  1 s( 29.71%)p 2.36( 70.26%)d 0.00(  0.04%)
                                         0.0000 -0.5450  0.0007  0.3192 -0.0250
                                         0.7745 -0.0147 -0.0005  0.0000 -0.0074
                                         0.0000  0.0001  0.0122  0.0128
               ( 70.04%)  -0.8369* H  9 s( 99.80%)p 0.00(  0.20%)
                                        -0.9990  0.0032 -0.0153 -0.0419  0.0001
  30. (0.02166) BD*( 1) C  2- C  3
               ( 49.68%)   0.7049* C  2 s( 43.60%)p 1.29( 56.36%)d 0.00(  0.04%)
                                         0.0000  0.6601 -0.0158  0.3609 -0.0397
                                         0.6571  0.0050  0.0005 -0.0002  0.0133
                                         0.0001  0.0000 -0.0029 -0.0131
               ( 50.32%)  -0.7093* C  3 s( 34.92%)p 1.86( 65.01%)d 0.00(  0.07%)
                                         0.0000  0.5908  0.0114 -0.5421 -0.0346
                                        -0.5958  0.0097 -0.0014 -0.0002  0.0173
                                         0.0001  0.0000 -0.0078 -0.0176
  31. (0.37299) BD*( 2) C  2- C  3
               ( 54.04%)   0.7351* C  2 s(  0.00%)p 1.00( 99.93%)d 0.00(  0.07%)
                                         0.0000  0.0001  0.0001  0.0050  0.0000
                                        -0.0020  0.0001 -0.9994  0.0241  0.0000
                                        -0.0196 -0.0168  0.0001 -0.0001
               ( 45.96%)  -0.6779* C  3 s(  0.00%)p 1.00( 99.93%)d 0.00(  0.07%)
                                         0.0000  0.0000  0.0001  0.0050 -0.0001
                                        -0.0021  0.0000 -0.9994  0.0218 -0.0001
                                         0.0111  0.0242 -0.0001  0.0000
  32. (0.03547) BD*( 1) C  2- O  7
               ( 69.73%)   0.8351* C  2 s( 23.58%)p 3.23( 76.16%)d 0.01(  0.26%)
                                         0.0000  0.4856 -0.0020  0.4591 -0.0167
                                        -0.7405 -0.0470  0.0038  0.0000 -0.0378
                                         0.0002 -0.0003 -0.0178 -0.0285
               ( 30.27%)  -0.5501* O  7 s( 32.53%)p 2.07( 67.39%)d 0.00(  0.08%)
                                         0.0000  0.5703  0.0018 -0.5293 -0.0133
                                         0.6273 -0.0074 -0.0039  0.0000 -0.0171
                                         0.0001 -0.0002 -0.0165 -0.0160
  33. (0.01025) BD*( 1) C  3- C  4
               ( 50.04%)   0.7074* C  3 s( 33.11%)p 2.02( 66.85%)d 0.00(  0.05%)
                                         0.0000  0.5753  0.0067  0.8010  0.0120
                                        -0.1582  0.0402  0.0043  0.0000 -0.0131
                                         0.0002 -0.0001  0.0068 -0.0161
               ( 49.96%)  -0.7068* C  4 s( 33.14%)p 2.02( 66.81%)d 0.00(  0.05%)
                                         0.0000  0.5756  0.0096 -0.7256  0.0114
                                         0.3742  0.0374 -0.0044  0.0000 -0.0036
                                         0.0002  0.0000  0.0143 -0.0162
  34. (0.01485) BD*( 1) C  3- H 10
               ( 38.42%)   0.6198* C  3 s( 31.80%)p 2.14( 68.18%)d 0.00(  0.02%)
                                         0.0000 -0.5637  0.0134  0.2504 -0.0044
                                        -0.7867 -0.0134  0.0029  0.0000  0.0084
                                        -0.0001  0.0001  0.0083  0.0102
               ( 61.58%)  -0.7847* H 10 s( 99.90%)p 0.00(  0.10%)
                                        -0.9995  0.0004 -0.0088  0.0300 -0.0001
  35. (0.02170) BD*( 1) C  4- C  5
               ( 50.40%)   0.7099* C  4 s( 34.89%)p 1.86( 65.04%)d 0.00(  0.07%)
                                         0.0000 -0.5907 -0.0078 -0.0540 -0.0343
                                         0.8039  0.0104 -0.0020 -0.0002 -0.0038
                                        -0.0001  0.0001  0.0186  0.0179
               ( 49.60%)  -0.7043* C  5 s( 43.63%)p 1.29( 56.34%)d 0.00(  0.04%)
                                         0.0000 -0.6604  0.0143 -0.1255 -0.0336
                                        -0.7390  0.0173  0.0008 -0.0002  0.0001
                                         0.0000  0.0001  0.0135  0.0132
  36. (0.37243) BD*( 2) C  4- C  5
               ( 46.01%)   0.6783* C  4 s(  0.00%)p 1.00( 99.93%)d 0.00(  0.07%)
                                         0.0000 -0.0001  0.0000 -0.0050  0.0001
                                         0.0022  0.0000  0.9994 -0.0215  0.0001
                                        -0.0063 -0.0257  0.0001  0.0000
               ( 53.99%)  -0.7348* C  5 s(  0.00%)p 1.00( 99.93%)d 0.00(  0.07%)
                                         0.0000 -0.0002  0.0000 -0.0051  0.0000
                                         0.0021  0.0001  0.9993 -0.0249 -0.0001
                                        -0.0050  0.0253  0.0000 -0.0001
  37. (0.01482) BD*( 1) C  4- H 11
               ( 38.41%)   0.6198* C  4 s( 31.79%)p 2.14( 68.18%)d 0.00(  0.03%)
                                         0.0000 -0.5637  0.0128 -0.6854 -0.0052
                                        -0.4603 -0.0123 -0.0025  0.0000 -0.0103
                                        -0.0001  0.0000 -0.0068  0.0103
               ( 61.59%)  -0.7848* H 11 s( 99.91%)p 0.00(  0.09%)
                                        -0.9995  0.0005  0.0249  0.0178  0.0001
  38. (0.02782) BD*( 1) C  5- N  6
               ( 60.86%)   0.7801* C  5 s( 32.47%)p 2.08( 67.42%)d 0.00(  0.11%)
                                         0.0000  0.5692  0.0275  0.5551  0.0122
                                        -0.6041 -0.0310  0.0042  0.0001 -0.0258
                                         0.0002 -0.0002 -0.0081 -0.0184
               ( 39.14%)  -0.6256* N  6 s( 40.52%)p 1.47( 59.43%)d 0.00(  0.05%)
                                         0.0000  0.6366  0.0039 -0.5108  0.0044
                                         0.5773 -0.0088 -0.0026  0.0000 -0.0153
                                         0.0001 -0.0001 -0.0011 -0.0169
  39. (0.03560) BD*( 1) C  5- O  7
               ( 69.73%)   0.8351* C  5 s( 23.54%)p 3.24( 76.20%)d 0.01(  0.26%)
                                         0.0000  0.4852 -0.0056 -0.8198 -0.0148
                                        -0.2949 -0.0517 -0.0035  0.0000  0.0262
                                         0.0004  0.0001  0.0327 -0.0287
               ( 30.27%)  -0.5502* O  7 s( 32.51%)p 2.07( 67.40%)d 0.00(  0.08%)
                                         0.0000  0.5702  0.0023  0.8049  0.0054
                                         0.1612 -0.0121  0.0038  0.0001  0.0198
                                         0.0002  0.0001  0.0130 -0.0158
  40. (0.00511) BD*( 1) N  6- H 12
               ( 30.04%)   0.5480* N  6 s( 29.67%)p 2.37( 70.30%)d 0.00(  0.04%)
                                         0.0000 -0.5447  0.0010 -0.8275  0.0258
                                        -0.1318 -0.0129 -0.0043  0.0002 -0.0074
                                        -0.0002  0.0000 -0.0125  0.0128
               ( 69.96%)  -0.8365* H 12 s( 99.80%)p 0.00(  0.20%)
                                        -0.9990  0.0006  0.0439  0.0085  0.0002
  41. (0.00714) BD*( 1) N  6- H 13
               ( 29.95%)   0.5473* N  6 s( 29.70%)p 2.37( 70.27%)d 0.00(  0.04%)
                                         0.0000 -0.5449  0.0018  0.2313  0.0110
                                         0.8052 -0.0267 -0.0009  0.0001 -0.0101
                                         0.0000  0.0001  0.0100  0.0128
               ( 70.05%)  -0.8369* H 13 s( 99.80%)p 0.00(  0.20%)
                                        -0.9990  0.0030 -0.0142 -0.0424  0.0001
  42. (0.00321) RY ( 1) N  1            s(  0.00%)p 1.00( 89.05%)d 0.12( 10.95%)
                                         0.0000  0.0001  0.0022  0.0001 -0.0059
                                        -0.0001  0.0030 -0.0316  0.9431 -0.0006
                                        -0.3218 -0.0767  0.0018 -0.0025
  43. (0.00177) RY ( 2) N  1            s(  1.40%)p65.73( 92.11%)d 4.63(  6.49%)
                                         0.0000  0.0046  0.1183 -0.0047 -0.2995
                                         0.0093  0.9117  0.0000 -0.0049 -0.2487
                                         0.0014 -0.0010  0.0532  0.0158
  44. (0.00039) RY ( 3) N  1            s( 72.54%)p 0.32( 23.10%)d 0.06(  4.36%)
                                         0.0000  0.0104  0.8517 -0.0099 -0.4032
                                        -0.0059 -0.2614  0.0001 -0.0033 -0.1046
                                         0.0001 -0.0004 -0.1794  0.0209
  45. (0.00011) RY ( 4) N  1            s(  9.54%)p 6.83( 65.13%)d 2.65( 25.33%)
                                         0.0000 -0.0173  0.3084  0.0320  0.7976
                                         0.0002  0.1190  0.0001  0.0036 -0.4230
                                        -0.0019 -0.0021 -0.2438  0.1218
  46. (0.00003) RY ( 5) N  1            s(  0.08%)p67.94(  5.14%)d99.99( 94.78%)
  47. (0.00002) RY ( 6) N  1            s( 14.25%)p 0.98( 13.99%)d 5.03( 71.76%)
  48. (0.00002) RY ( 7) N  1            s(  0.00%)p 1.00(  0.42%)d99.99( 99.57%)
  49. (0.00001) RY ( 8) N  1            s(  0.00%)p 1.00( 10.53%)d 8.50( 89.47%)
  50. (0.00000) RY ( 9) N  1            s(  2.31%)p 0.23(  0.53%)d42.05( 97.16%)
  51. (0.00724) RY ( 1) C  2            s( 15.85%)p 4.78( 75.76%)d 0.53(  8.39%)
                                         0.0000 -0.0210  0.3976  0.0144  0.1522
                                         0.0370 -0.8561  0.0000  0.0024  0.0732
                                         0.0016  0.0011  0.2737 -0.0600
  52. (0.00382) RY ( 2) C  2            s( 23.59%)p 2.51( 59.31%)d 0.73( 17.10%)
                                         0.0000  0.0409  0.4839  0.0259  0.6116
                                        -0.0095  0.4672  0.0002  0.0011 -0.0035
                                         0.0035  0.0006  0.4096 -0.0568
  53. (0.00248) RY ( 3) C  2            s(  0.00%)p 1.00(  0.85%)d99.99( 99.15%)
                                         0.0000  0.0000  0.0016 -0.0001 -0.0011
                                         0.0000  0.0009  0.0270  0.0884  0.0000
                                        -0.9007 -0.4243  0.0060 -0.0065
  54. (0.00164) RY ( 4) C  2            s(  0.00%)p 1.00(  0.04%)d99.99( 99.96%)
                                         0.0000 -0.0001  0.0003  0.0000 -0.0007
                                         0.0000 -0.0004  0.0064 -0.0197  0.0056
                                         0.4246 -0.9051 -0.0001  0.0068
  55. (0.00134) RY ( 5) C  2            s( 16.79%)p 2.18( 36.61%)d 2.77( 46.59%)
                                         0.0000 -0.0354  0.4083  0.0068 -0.5928
                                         0.0162  0.1200  0.0001  0.0040 -0.6247
                                         0.0053 -0.0018  0.2474 -0.1198
  56. (0.00128) RY ( 6) C  2            s(  0.00%)p 1.00( 99.17%)d 0.01(  0.83%)
                                         0.0000 -0.0003  0.0031  0.0002 -0.0004
                                         0.0000 -0.0013 -0.0219 -0.9956 -0.0039
                                        -0.0888 -0.0201  0.0017 -0.0014
  57. (0.00083) RY ( 7) C  2            s( 25.40%)p 0.85( 21.53%)d 2.09( 53.07%)
                                         0.0000 -0.0184  0.5036  0.0302 -0.4289
                                        -0.0285  0.1721  0.0002 -0.0015  0.7135
                                        -0.0014  0.0042 -0.1468 -0.0099
  58. (0.00049) RY ( 8) C  2            s( 15.02%)p 0.45(  6.73%)d 5.21( 78.25%)
                                         0.0000  0.0053  0.3875 -0.0201  0.2532
                                         0.0287 -0.0443 -0.0001  0.0014 -0.2789
                                        -0.0016 -0.0040 -0.8145 -0.2033
  59. (0.00001) RY ( 9) C  2            s(  3.73%)p 0.02(  0.08%)d25.81( 96.19%)
  60. (0.00323) RY ( 1) C  3            s(  9.95%)p 8.16( 81.15%)d 0.90(  8.91%)
                                         0.0000  0.0244  0.3144  0.0246 -0.2638
                                         0.0067 -0.8609  0.0001  0.0003 -0.2324
                                         0.0000 -0.0018 -0.1741 -0.0686
  61. (0.00175) RY ( 2) C  3            s(  0.00%)p 1.00( 80.79%)d 0.24( 19.21%)
                                         0.0000 -0.0002  0.0028  0.0001 -0.0133
                                         0.0004  0.0047  0.0218  0.8985  0.0028
                                         0.4255 -0.1047 -0.0004  0.0037
  62. (0.00160) RY ( 3) C  3            s( 14.25%)p 5.65( 80.58%)d 0.36(  5.17%)
                                         0.0000 -0.0218  0.3769  0.0151 -0.8371
                                         0.0290  0.3220 -0.0002 -0.0139  0.1556
                                        -0.0028  0.0022  0.1624 -0.0331
  63. (0.00057) RY ( 4) C  3            s( 74.63%)p 0.33( 24.37%)d 0.01(  1.00%)
                                         0.0000 -0.0056  0.8639 -0.0178  0.4627
                                         0.0070  0.1698 -0.0003  0.0204  0.0476
                                        -0.0381 -0.0087 -0.0168 -0.0769
  64. (0.00055) RY ( 5) C  3            s(  0.14%)p99.99( 16.13%)d99.99( 83.73%)
                                         0.0000 -0.0003  0.0375 -0.0008  0.0226
                                         0.0003  0.0066  0.0059 -0.4009  0.0023
                                         0.8942  0.1939 -0.0066  0.0036
  65. (0.00011) RY ( 6) C  3            s(  0.03%)p99.99(  8.92%)d99.99( 91.05%)
                                         0.0000  0.0138 -0.0112 -0.0034  0.1134
                                         0.0035 -0.2762  0.0000  0.0008  0.2259
                                         0.0060  0.0031  0.9196 -0.1171
  66. (0.00005) RY ( 7) C  3            s(  0.07%)p64.27(  4.56%)d99.99( 95.37%)
  67. (0.00003) RY ( 8) C  3            s(  0.00%)p 1.00(  3.16%)d30.65( 96.84%)
  68. (0.00001) RY ( 9) C  3            s(  1.11%)p 0.33(  0.37%)d89.16( 98.52%)
  69. (0.00280) RY ( 1) C  4            s( 10.34%)p 7.60( 78.64%)d 1.07( 11.02%)
                                         0.0000  0.0259  0.3205 -0.0120 -0.4488
                                         0.0102 -0.7647 -0.0001  0.0003  0.2533
                                         0.0004  0.0019  0.2019 -0.0729
  70. (0.00184) RY ( 2) C  4            s( 10.63%)p 8.16( 86.72%)d 0.25(  2.65%)
                                         0.0000 -0.0166  0.3255  0.0004  0.8330
                                         0.0338 -0.4150 -0.0002 -0.0009 -0.1405
                                         0.0032 -0.0025 -0.0736 -0.0367
  71. (0.00173) RY ( 3) C  4            s(  0.00%)p 1.00( 79.43%)d 0.26( 20.57%)
                                         0.0000 -0.0001  0.0026 -0.0001  0.0015
                                         0.0002  0.0003  0.0216  0.8910 -0.0033
                                        -0.4103  0.1931  0.0006 -0.0044
  72. (0.00057) RY ( 4) C  4            s( 77.86%)p 0.27( 20.64%)d 0.02(  1.50%)
                                         0.0000 -0.0094  0.8823  0.0213 -0.1466
                                        -0.0052  0.4292  0.0002 -0.0137 -0.0260
                                        -0.0148  0.0186 -0.0919 -0.0726
  73. (0.00054) RY ( 5) C  4            s(  0.06%)p99.99( 17.28%)d99.99( 82.66%)
                                         0.0000 -0.0003  0.0240  0.0006 -0.0063
                                        -0.0002  0.0125 -0.0057  0.4154  0.0048
                                         0.5676 -0.7102 -0.0037  0.0053
  74. (0.00011) RY ( 6) C  4            s(  0.02%)p99.99( 10.12%)d99.99( 89.86%)
                                         0.0000  0.0150 -0.0042  0.0044 -0.2616
                                         0.0032 -0.1810  0.0000 -0.0009 -0.9340
                                         0.0025 -0.0059 -0.1265 -0.1006
  75. (0.00005) RY ( 7) C  4            s(  0.12%)p29.35(  3.55%)d99.99( 96.33%)
  76. (0.00003) RY ( 8) C  4            s(  0.00%)p 1.00(  3.36%)d28.79( 96.64%)
  77. (0.00001) RY ( 9) C  4            s(  1.14%)p 0.26(  0.30%)d86.09( 98.56%)
  78. (0.00704) RY ( 1) C  5            s( 11.94%)p 6.83( 81.52%)d 0.55(  6.54%)
                                         0.0000 -0.0253  0.3446  0.0141 -0.6233
                                         0.0385 -0.6519  0.0000 -0.0016 -0.2483
                                         0.0007 -0.0018 -0.0257 -0.0561
  79. (0.00380) RY ( 2) C  5            s( 31.37%)p 1.49( 46.85%)d 0.69( 21.78%)
                                         0.0000  0.0344  0.5590 -0.0322 -0.1973
                                         0.0105  0.6545 -0.0002 -0.0006 -0.4471
                                         0.0018 -0.0020  0.1139 -0.0700
  80. (0.00249) RY ( 3) C  5            s(  0.00%)p 1.00(  2.16%)d45.27( 97.84%)
                                         0.0000 -0.0001  0.0011 -0.0002  0.0007
                                         0.0001 -0.0002  0.0282  0.1443  0.0053
                                         0.4398 -0.8860 -0.0001  0.0069
  81. (0.00164) RY ( 4) C  5            s(  0.00%)p 0.00(  0.01%)d 1.00( 99.99%)
                                         0.0000 -0.0001  0.0009  0.0000  0.0012
                                         0.0000 -0.0009 -0.0068 -0.0011 -0.0009
                                         0.8958  0.4443 -0.0044  0.0058
  82. (0.00130) RY ( 5) C  5            s(  0.01%)p 1.00( 97.85%)d 0.02(  2.14%)
                                         0.0000 -0.0010  0.0099  0.0002  0.0205
                                         0.0004 -0.0103 -0.0210 -0.9887 -0.0046
                                         0.0633 -0.1303  0.0186 -0.0022
  83. (0.00128) RY ( 6) C  5            s( 11.39%)p 3.50( 39.87%)d 4.28( 48.74%)
                                         0.0000 -0.0362  0.3356  0.0091  0.5436
                                         0.0155 -0.3192  0.0007  0.0310 -0.0993
                                         0.0004  0.0046  0.6815 -0.1144
  84. (0.00084) RY ( 7) C  5            s( 20.10%)p 1.40( 28.09%)d 2.58( 51.82%)
                                         0.0000 -0.0202  0.4478 -0.0429  0.4982
                                        -0.0056 -0.1755 -0.0001  0.0035 -0.0989
                                        -0.0044 -0.0011 -0.7129  0.0127
  85. (0.00046) RY ( 8) C  5            s( 21.45%)p 0.17(  3.67%)d 3.49( 74.87%)
                                         0.0000  0.0016  0.4632  0.0268 -0.1615
                                         0.0094  0.0993  0.0001 -0.0030  0.8365
                                         0.0005  0.0035  0.0319 -0.2191
  86. (0.00001) RY ( 9) C  5            s(  4.10%)p 0.02(  0.09%)d23.37( 95.81%)
  87. (0.00325) RY ( 1) N  6            s(  0.00%)p 1.00( 89.22%)d 0.12( 10.78%)
                                         0.0000  0.0000  0.0005 -0.0001  0.0064
                                         0.0000 -0.0027  0.0319 -0.9440 -0.0016
                                        -0.2028  0.2583  0.0007 -0.0027
  88. (0.00145) RY ( 2) N  6            s(  0.17%)p99.99( 92.08%)d46.11(  7.75%)
                                         0.0000  0.0052  0.0407  0.0082  0.7916
                                         0.0045  0.5423  0.0000  0.0037 -0.0007
                                         0.0015  0.0003  0.2779  0.0181
  89. (0.00045) RY ( 3) N  6            s( 71.91%)p 0.34( 24.29%)d 0.05(  3.80%)
                                         0.0000  0.0108  0.8479  0.0078  0.2311
                                        -0.0134 -0.4351  0.0000  0.0031  0.1819
                                         0.0000  0.0006  0.0652  0.0258
  90. (0.00011) RY ( 4) N  6            s( 10.64%)p 5.68( 60.41%)d 2.72( 28.95%)
                                         0.0000 -0.0153  0.3259 -0.0249 -0.5378
                                         0.0194  0.5602 -0.0002 -0.0050  0.3502
                                         0.0002  0.0031  0.3835  0.1408
  91. (0.00003) RY ( 5) N  6            s(  2.87%)p 4.30( 12.32%)d29.59( 84.81%)
  92. (0.00002) RY ( 6) N  6            s( 12.34%)p 0.84( 10.35%)d 6.26( 77.31%)
  93. (0.00002) RY ( 7) N  6            s(  0.00%)p 1.00(  0.39%)d99.99( 99.61%)
  94. (0.00001) RY ( 8) N  6            s(  0.00%)p 1.00( 10.39%)d 8.62( 89.61%)
  95. (0.00000) RY ( 9) N  6            s(  2.19%)p 0.26(  0.56%)d44.45( 97.25%)
  96. (0.00154) RY ( 1) O  7            s( 12.65%)p 5.95( 75.28%)d 0.95( 12.07%)
                                         0.0000 -0.0102  0.3555 -0.0006 -0.4216
                                        -0.0081 -0.7583  0.0000  0.0001 -0.1980
                                         0.0021 -0.0004  0.2854 -0.0068
  97. (0.00065) RY ( 2) O  7            s(  0.00%)p 1.00( 85.71%)d 0.17( 14.29%)
                                         0.0000  0.0000  0.0004 -0.0001  0.0035
                                         0.0000 -0.0019  0.0128 -0.9257  0.0015
                                        -0.1195 -0.3587  0.0016  0.0002
  98. (0.00056) RY ( 3) O  7            s(  0.34%)p99.99( 92.32%)d21.29(  7.33%)
                                         0.0000 -0.0006  0.0587 -0.0042  0.8602
                                         0.0003 -0.4281  0.0000  0.0043 -0.2468
                                         0.0044 -0.0033 -0.1113 -0.0026
  99. (0.00049) RY ( 4) O  7            s(  0.00%)p 0.00(  0.00%)d 1.00(100.00%)
                                         0.0000  0.0000  0.0015  0.0000  0.0042
                                         0.0000 -0.0016  0.0001 -0.0044 -0.0051
                                        -0.9452  0.3264  0.0037 -0.0095
 100. (0.00016) RY ( 5) O  7            s( 82.61%)p 0.10(  7.88%)d 0.12(  9.51%)
                                         0.0000  0.0005  0.9089 -0.0038  0.0966
                                        -0.0055  0.2635  0.0000  0.0002  0.1754
                                         0.0014 -0.0006 -0.1723 -0.1862
 101. (0.00008) RY ( 6) O  7            s(  0.22%)p36.06(  7.88%)d99.99( 91.90%)
 102. (0.00006) RY ( 7) O  7            s(  2.14%)p 7.73( 16.51%)d38.06( 81.35%)
 103. (0.00002) RY ( 8) O  7            s(  2.07%)p 0.15(  0.30%)d47.15( 97.63%)
 104. (0.00002) RY ( 9) O  7            s(  0.00%)p 1.00( 14.37%)d 5.96( 85.63%)
 105. (0.00113) RY ( 1) H  8            s( 94.85%)p 0.05(  5.15%)
                                         0.0103  0.9739 -0.1042  0.2015  0.0043
 106. (0.00077) RY ( 2) H  8            s(  0.00%)p 1.00(100.00%)
                                         0.0000  0.0049  0.0038 -0.0004 -1.0000
 107. (0.00021) RY ( 3) H  8            s(  0.19%)p99.99( 99.81%)
                                         0.0021  0.0430 -0.7873 -0.6151 -0.0025
[...]
 11 H                -0.0      -0.0       0.0       0.0       0.1       0.0
 12 H                -0.0       0.0      -0.0       0.0      -0.2       0.0

                     36        37        38        39        40        41   
                   0.00000   0.00000   0.00000   0.00000   0.00000   0.00000
                   0.01482   0.02782   0.03560   0.00511   0.00714   0.00321
                  --------  --------  --------  --------  --------  --------
  0 N                 0.1       0.2       0.1      -0.0       0.0     105.4
  1 C                -0.4       2.3       5.3      -0.0       0.0      -3.4
  2 C                 0.6      -2.0      -2.9       0.0      -0.0      -0.1
  3 C                44.9       5.6       5.7       0.2      -0.4       0.0
  4 C                 0.8      44.0      59.8      -0.1       0.2      -0.1
  5 N                 0.1      48.8       1.7      34.0      33.8      -0.0
  6 O                -0.4       0.6      30.9      -0.2       0.0      -0.1
  7 H                 0.0      -0.0      -0.0       0.0      -0.0      -0.8
  8 H                 0.0       0.0       0.0      -0.0       0.0      -0.9
  9 H                 0.0       0.1      -0.0       0.0       0.0      -0.0
 10 H                54.3       0.1      -0.4       0.0       0.0      -0.0
 11 H                 0.0       0.1      -0.1      66.2      -0.0      -0.0
 12 H                 0.0       0.3       0.0      -0.0      66.4      -0.0

                     42        43        44        45        46        47   
                   0.00000   0.00000   0.00000   0.00000   0.00000   0.00000
                   0.00177   0.00039   0.00011   0.00003   0.00002   0.00002
                  --------  --------  --------  --------  --------  --------
  0 N               143.7     223.2     121.2     110.0     109.5     104.9
  1 C               -27.8    -103.4      -2.1      -2.6      -1.8      -0.2
  2 C                -0.3     -10.7      -0.7       0.4       0.1      -0.0
  3 C                -0.2       1.6       0.0      -0.0      -0.0      -0.0
  4 C                -0.3      -4.7      -0.1       0.1       0.0      -0.0
  5 N                -0.1      -1.2      -0.0       0.0       0.0      -0.0
  6 O                 0.3      -2.2      -0.1      -0.0      -0.1      -0.0
  7 H                -8.2      -2.0      -8.6      -4.6      -2.8      -2.7
  8 H                -7.1       0.0      -9.6      -3.2      -4.9      -1.9
  9 H                 0.0      -0.4      -0.0      -0.0      -0.0      -0.0
 10 H                -0.0      -0.2      -0.0       0.0       0.0      -0.0

                     48        49        50        51        52        53   
                   0.00000   0.00000   0.00000   0.00000   0.00000   0.00000
                   0.00001   0.00000   0.00724   0.00382   0.00248   0.00164
                  --------  --------  --------  --------  --------  --------
  0 N               103.3     109.7     -13.9     -47.4      -1.6      -0.1
  1 C                -2.5      -0.7     180.4     323.8     104.1     102.5
  2 C                -0.1      -0.1     -15.8    -164.7      -2.3      -0.7
  3 C                 0.0       0.0      -0.4      31.7      -0.0      -0.0
  4 C                -0.0      -0.0     -20.9     -30.4      -0.0      -0.0
  5 N                -0.0      -0.0      -1.2      -1.8      -0.0      -0.0
  6 O                -0.1      -0.1     -28.5      -6.9      -0.1      -1.6
  7 H                 0.1      -3.9      -0.2      -0.8      -0.0      -0.0
  8 H                -0.7      -4.9      -0.6      -1.4      -0.0       0.0
  9 H                -0.0      -0.0       1.2      -2.1       0.0      -0.0

                     54        55        56        57        58        59   
                   0.00000   0.00000   0.00000   0.00000   0.00000   0.00000
                   0.00134   0.00128   0.00083   0.00049   0.00001   0.00323
                  --------  --------  --------  --------  --------  --------
  0 N               -49.5      -5.6     -36.0      -0.6      -1.9      -7.2
  1 C               190.2     116.5     176.9     137.3     111.5    -125.4
  2 C               -30.4      -7.6     -37.8     -36.8      -6.4     272.5
  3 C                -5.2       0.2      -2.4      11.1       0.7     -40.9
  4 C                 1.3      -0.9       0.8     -12.6      -1.9      15.3
  5 N                -0.3      -0.1      -0.0      -0.9      -0.2       0.4
  6 O                -3.1      -2.5      -0.1       2.8      -1.6      -0.1
  7 H                -3.0      -0.0       0.9      -0.0      -0.1      -0.3
  8 H                 0.0      -0.0      -2.2      -0.1      -0.1      -0.1
  9 H                 0.1      -0.1      -0.0      -0.2      -0.1     -14.8
 10 H                -0.1      -0.0      -0.0       0.0      -0.0       0.6

                     60        61        62        63        64        65   
                   0.00000   0.00000   0.00000   0.00000   0.00000   0.00000
                   0.00175   0.00160   0.00057   0.00055   0.00011   0.00005
                  --------  --------  --------  --------  --------  --------
  0 N                -0.2       1.9      -3.0       0.0      -1.0      -0.6
  1 C                -5.8     -69.4     -78.7      -1.9      -6.2      -4.1
  2 C               110.4     207.0     325.5     104.9     120.7     111.4
  3 C                -3.3      -6.1    -157.9      -3.1      -3.9      -2.6
  4 C                 0.1      -3.3      22.1       0.1       0.6       0.5
  5 N                 0.0      -0.2       1.2       0.0      -0.1      -0.0
  6 O                -0.1      -4.4      -0.2       0.0      -0.0       0.0
  7 H                -0.0      -0.3       0.0       0.0       0.0      -0.0
  9 H                -1.0     -25.2      -6.9       0.1     -10.0      -4.8
 10 H                -0.0       0.0      -2.0      -0.1      -0.0       0.1

                     66        67        68        69        70        71   
                   0.00000   0.00000   0.00000   0.00000   0.00000   0.00000
                   0.00003   0.00001   0.00280   0.00184   0.00173   0.00057
                  --------  --------  --------  --------  --------  --------
  0 N                -0.1      -0.0       0.6      -0.2       0.0       1.1
  1 C                -2.0      -3.2      18.9      -4.4       0.1      19.7
  2 C               105.2     108.2     -50.3     -11.0      -3.2    -144.0
  3 C                -0.7      -1.4     273.5     214.6     110.2     316.0
  4 C                -0.0       0.1    -117.6     -78.3      -5.8     -76.3
  5 N                -0.0      -0.1      -7.5       2.1      -0.2      -2.9
  6 O                -0.0      -0.0       0.3      -4.9      -0.1      -0.3
  9 H                -2.4      -3.6       0.2       0.2      -0.0      -1.6
 10 H                 0.0      -0.0     -17.8     -17.7      -1.0     -11.5
 11 H                 0.0      -0.0      -0.2      -0.3      -0.0      -0.0

                     72        73        74        75        76        77   
                   0.00000   0.00000   0.00000   0.00000   0.00000   0.00000
                   0.00054   0.00011   0.00005   0.00003   0.00001   0.00704
                  --------  --------  --------  --------  --------  --------
  0 N                 0.0      -0.1      -0.0      -0.0      -0.1      -1.0
  1 C                 0.1       0.8       0.3      -0.0       0.1     -16.6
  2 C                -3.0      -4.4      -2.4      -0.8      -1.2      -2.4
  3 C               104.7     122.4     110.1     105.2     107.8     -15.4
  4 C                -1.9      -6.7      -3.5      -2.0      -3.2     180.1
  5 N                 0.0      -1.2      -0.3      -0.1      -0.0     -16.5
  6 O                 0.0       0.1      -0.0      -0.0      -0.0     -28.3
  9 H                -0.1      -0.0       0.1       0.0      -0.0      -0.0
 10 H                 0.1     -10.7      -4.2      -2.3      -3.2       1.2
 11 H                 0.0      -0.0      -0.0      -0.0      -0.0      -0.2
 12 H                -0.0      -0.0      -0.0      -0.0      -0.0      -0.8

                     78        79        80        81        82        83   
                   0.00000   0.00000   0.00000   0.00000   0.00000   0.00000
                   0.00380   0.00249   0.00164   0.00130   0.00128   0.00084
                  --------  --------  --------  --------  --------  --------
  0 N                -2.0      -0.0      -0.0      -0.1      -0.5      -0.2
  1 C               -32.1      -0.0      -0.0      -0.8      -0.6      -0.3
  2 C                32.5      -0.0      -0.0       0.2      -3.7      -2.0
  3 C              -170.7      -2.5      -0.7      -7.4     -22.7     -29.3
  4 C               314.5     104.2     102.5     116.5     189.3     175.7
  5 N               -33.3      -1.4      -0.2      -5.7     -54.6     -42.7
  6 O                -5.1      -0.1      -1.5      -2.6      -4.0       0.0
  9 H                 0.0      -0.0      -0.0      -0.0      -0.2      -0.1
 10 H                -2.1       0.0      -0.0      -0.0       0.1       0.2
 11 H                -0.5      -0.0      -0.0      -0.0      -3.1       0.8
 12 H                -1.0      -0.0      -0.0      -0.0       0.1      -2.3

                     84        85        86        87        88        89   
                   0.00000   0.00000   0.00000   0.00000   0.00000   0.00000
                   0.00046   0.00001   0.00325   0.00145   0.00045   0.00011
                  --------  --------  --------  --------  --------  --------
  0 N                -0.9      -0.2      -0.0      -0.1      -1.1      -0.0
  1 C               -12.7      -2.1      -0.1      -0.5      -4.3      -0.0
  2 C                11.3       0.8       0.0      -0.2       1.6      -0.0
  3 C               -47.0      -7.1      -0.1       0.3     -11.3      -0.4
  4 C               149.2     112.5      -3.4     -25.4    -108.1      -1.8
  5 N                -2.3      -2.0     105.4     141.9     227.3     119.9
  6 O                 3.0      -1.6      -0.1      -0.1      -2.1      -0.0
  9 H                 0.0      -0.0      -0.0      -0.0      -0.2      -0.0
 10 H                -0.3      -0.1      -0.0      -0.0      -0.4      -0.0
 11 H                -0.1      -0.1      -0.8      -9.3      -1.3      -8.4
 12 H                -0.2      -0.2      -0.9      -6.6      -0.2      -9.1

                     90        91        92        93        94        95   
                   0.00000   0.00000   0.00000   0.00000   0.00000   0.00000
                   0.00003   0.00002   0.00002   0.00001   0.00000   0.00154
                  --------  --------  --------  --------  --------  --------
  1 C                 0.0       0.0      -0.0      -0.0      -0.0      -8.5
  2 C                -0.0      -0.0      -0.0       0.0       0.0      -0.6
  3 C                 0.4       0.1      -0.0      -0.1      -0.1       0.1
  4 C                -3.5      -1.1      -0.2      -2.5      -0.7      -4.4
  5 N               113.6     106.7     104.9     103.2     110.0      -0.2
  6 O                -0.1      -0.1      -0.0      -0.1      -0.0     113.9
  8 H                 0.0      -0.0      -0.0      -0.0      -0.0      -0.1
 11 H                -5.3      -2.1      -2.8       0.1      -4.0      -0.0
 12 H                -5.0      -3.5      -1.9      -0.7      -5.1      -0.1

                     96        97        98        99       100       101   
                   0.00000   0.00000   0.00000   0.00000   0.00000   0.00000
                   0.00065   0.00056   0.00049   0.00016   0.00008   0.00006
                  --------  --------  --------  --------  --------  --------
  0 N                -0.1       0.8      -0.0      -2.1       0.1      -0.6
  1 C                -2.1     -13.6      -0.7      -9.8      -1.6      -3.9
  2 C                -0.1      -3.7      -0.0      -0.1      -0.3       0.2
  3 C                -0.1      -4.4      -0.0      -0.2      -0.4       0.4
  4 C                -2.1     -16.7      -0.7      -9.8      -2.7      -3.0
  5 N                -0.1       0.9      -0.0      -2.1       0.4      -0.9
  6 O               104.5     136.9     101.5     124.4     104.5     107.8
  7 H                -0.0      -0.0      -0.0      -0.1       0.0      -0.0
 11 H                -0.0      -0.0      -0.0      -0.1       0.0      -0.0

                    102       103       104       105       106       107   
                   0.00000   0.00000   0.00000   0.00000   0.00000   0.00000
                   0.00002   0.00002   0.00113   0.00077   0.00021   0.00002
                  --------  --------  --------  --------  --------  --------
  0 N                 0.0      -0.1      -9.8      -3.4      -3.1      -5.8
  1 C                -1.0      -1.2      -4.0      -0.1      -0.4       0.0
  4 C                -1.1      -1.2      -0.1      -0.0      -0.0      -0.0
  6 O               102.1     102.6      -0.2      -0.0      -0.0      -0.0
  7 H                -0.0      -0.0     115.9     103.8     104.2     106.2
  8 H                -0.0      -0.0      -1.3      -0.3      -0.7      -0.3
  9 H                -0.0      -0.0      -0.4      -0.0      -0.0      -0.1

                    108       109       110       111       112       113   
                   0.00000   0.00000   0.00000   0.00000   0.00000   0.00000
                   0.00243   0.00078   0.00020   0.00003   0.00104   0.00033
                  --------  --------  --------  --------  --------  --------
  0 N                -9.4      -3.4      -3.1      -5.9      -0.3      -0.0
  1 C                -4.8      -0.1      -0.3      -0.0      -1.7      -0.1
  2 C                -0.3      -0.0      -0.0      -0.0     -43.2      -3.2
  3 C                 0.0      -0.0      -0.0      -0.0      -1.7      -0.1
  5 N                -0.0      -0.0      -0.0      -0.0      -0.1      -0.0
  7 H                -1.2      -0.3      -0.8      -0.2      -0.4      -0.0
  8 H               115.9     103.8     104.3     106.1      -0.0      -0.0
  9 H                 0.0      -0.0      -0.0      -0.0     147.6     103.4
 10 H                -0.0      -0.0      -0.0      -0.0      -0.3      -0.0

                    114       115       116       117       118       119   
                   0.00000   0.00000   0.00000   0.00000   0.00000   0.00000
                   0.00007   0.00005   0.00102   0.00034   0.00007   0.00005
                  --------  --------  --------  --------  --------  --------
  0 N                 0.0      -0.0      -0.1      -0.0      -0.0      -0.0
  1 C                -0.5       0.0       0.1      -0.0      -0.1      -0.1
  2 C                -5.7      -7.5      -2.0      -0.1      -0.3       0.0
  3 C                -0.3      -0.2     -43.5      -3.1      -4.3      -8.6
  4 C                -0.1      -0.1      -1.3      -0.1      -0.8       0.1
  5 N                -0.1      -0.0      -0.3      -0.0       0.0      -0.0
  9 H               106.8     108.0      -0.3      -0.0      -0.2      -0.0
 10 H                -0.2      -0.1     147.8     103.3     105.8     108.7
 11 H                -0.0      -0.0      -0.4      -0.0      -0.0      -0.1

                    120       121       122       123       124       125   
                   0.00000   0.00000   0.00000   0.00000   0.00000   0.00000
                   0.00115   0.00075   0.00022   0.00002   0.00235   0.00077
                  --------  --------  --------  --------  --------  --------
  1 C                -0.1      -0.0      -0.0      -0.0      -0.1      -0.0
  3 C                 0.0      -0.0      -0.0      -0.1      -0.4      -0.0
  4 C                -4.1      -0.1      -0.3       0.0      -4.8      -0.1
  5 N                -9.7      -3.4      -3.1      -6.0      -9.3      -3.4
  6 O                -0.2      -0.0      -0.0      -0.0      -0.1      -0.0
 10 H                -0.4      -0.0      -0.0      -0.1       0.0      -0.0
 11 H               115.9     103.8     104.1     106.5      -1.2      -0.3
 12 H                -1.2      -0.3      -0.7      -0.3     115.8     103.8

                    126       127   
                   0.00000   0.00000
                   0.00021   0.00003
                  --------  --------
  4 C                -0.3      -0.0
  5 N                -3.1      -5.9
 11 H                -0.8      -0.2
 12 H               104.3     106.2

Storing NBOs: 6081.nbo
                                    *** NBOs were stored ***

                                *** returned from GENNBO program ***

-------
TIMINGS
-------

Total SCF time: 0 days 0 hours 0 min 4 sec 

Total time                  ....       4.755 sec
Sum of individual times     ....       5.174 sec  (108.8%)

Fock matrix formation       ....       3.067 sec  ( 64.5%)
  Coulomb formation         ....       1.716 sec  ( 55.9% of F)
  Split-RI-J                ....       1.707 sec  ( 55.7% of F)
  XC integration            ....       1.347 sec  ( 43.9% of F)
    Basis function eval.    ....       0.461 sec  ( 34.2% of XC)
    Density eval.           ....       0.241 sec  ( 17.9% of XC)
    XC-Functional eval.     ....       0.092 sec  (  6.8% of XC)
    XC-Potential eval.      ....       0.523 sec  ( 38.8% of XC)
Diagonalization             ....       0.019 sec  (  0.4%)
Density matrix formation    ....       0.002 sec  (  0.1%)
Population analysis         ....       1.173 sec  ( 24.7%)
Initial guess               ....       0.315 sec  (  6.6%)
Orbital Transformation      ....       0.000 sec  (  0.0%)
Orbital Orthonormalization  ....       0.000 sec  (  0.0%)
DIIS solution               ....       0.004 sec  (  0.1%)
SOSCF solution              ....       0.010 sec  (  0.2%)
Grid generation             ....       0.583 sec  ( 12.3%)
           ************************************************************
           *              Shut down parallel processing               *
           ************************************************************

-------------------------   --------------------
FINAL SINGLE POINT ENERGY      -340.082958034124
-------------------------   --------------------


                            ***************************************
                            *     ORCA property calculations      *
                            ***************************************

                                    ---------------------
                                    Active property flags
                                    ---------------------
   (+) Dipole Moment


------------------------------------------------------------------------------
                       ORCA ELECTRIC PROPERTIES CALCULATION
------------------------------------------------------------------------------

Dipole Moment Calculation                       ... on
Quadrupole Moment Calculation                   ... off
Polarizability Calculation                      ... off
GBWName                                         ... 6081.gbw
Electron density file                           ... 6081.scfp.tmp

-------------
DIPOLE MOMENT
-------------
                                X             Y             Z
Electronic contribution:     -0.42261      -1.19226      -0.00049
Nuclear contribution   :      0.19295       0.55336       0.00342
                        -----------------------------------------
Total Dipole Moment    :     -0.22966      -0.63890       0.00294
                        -----------------------------------------
Magnitude (a.u.)       :      0.67893
Magnitude (Debye)      :      1.72571


Timings for individual modules:

Sum of individual times         ...        5.871 sec (=   0.098 min)
GTO integral calculation        ...        0.471 sec (=   0.008 min)   8.0 %
SCF iterations                  ...        5.400 sec (=   0.090 min)  92.0 %
                             ****ORCA TERMINATED NORMALLY****
TOTAL RUN TIME: 0 days 0 hours 0 minutes 6 seconds 259 msec
