
                                 *****************
                                 * O   R   C   A *
                                 *****************

           --- An Ab Initio, DFT and Semiempirical electronic structure package ---

                  #######################################################
                  #                        -***-                        #
                  #  Department of molecular theory and spectroscopy    #
                  #              Directorship: Frank Neese              #
                  # Max Planck Institute for Chemical Energy Conversion #
                  #                  D-45470 Muelheim/Ruhr              #
                  #                       Germany                       #
                  #                                                     #
                  #                  All rights reserved                #
                  #                        -***-                        #
                  #######################################################


                         Program Version 3.0.3 - RELEASE   -


 With contributions from (in alphabetic order):
   Ute Becker             : Parallelization
   Dmytro Bykov           : SCF Hessian
   Dmitry Ganyushin       : Spin-Orbit,Spin-Spin,Magnetic field MRCI
   Andreas Hansen         : Spin unrestricted coupled pair/coupled cluster methods
   Dimitrios Liakos       : Extrapolation schemes; parallel MDCI
   Robert Izsak           : Overlap fitted RIJCOSX, COSX-SCS-MP3
   Christian Kollmar      : KDIIS, OOCD, Brueckner-CCSD(T), CCSD density
   Simone Kossmann        : Meta GGA functionals, TD-DFT gradient, OOMP2, MP2 Hessian
   Taras Petrenko         : DFT Hessian,TD-DFT gradient, ASA and ECA modules, normal mode analysis, Resonance Raman, ABS, FL, XAS/XES, NRVS
   Christoph Reimann      : Effective Core Potentials
   Michael Roemelt        : Restricted open shell CIS
   Christoph Riplinger    : Improved optimizer, TS searches, QM/MM, DLPNO-CCSD
   Barbara Sandhoefer     : DKH picture change effects
   Igor Schapiro          : Molecular dynamics
   Kantharuban Sivalingam : CASSCF convergence, NEVPT2
   Boris Wezisla          : Elementary symmetry handling
   Frank Wennmohs         : Technical directorship


 We gratefully acknowledge several colleagues who have allowed us to
 interface, adapt or use parts of their codes:
   Stefan Grimme, W. Hujo, H. Kruse, T. Risthaus : VdW corrections, initial TS optimization,
                                                   DFT functionals, gCP
   Ed Valeev                                     : LibInt (2-el integral package), F12 methods
   Garnet Chan, S. Sharma, R. Olivares           : DMRG
   Ulf Ekstrom                                   : XCFun DFT Library
   Mihaly Kallay                                 : mrcc  (arbitrary order and MRCC methods)
   Andreas Klamt, Michael Diedenhofen            : otool_cosmo (COSMO solvation model)
   Frank Weinhold                                : gennbo (NPA and NBO analysis)
   Christopher J. Cramer and Donald G. Truhlar   : smd solvation model


 Your calculation uses the libint2 library for the computation of 2-el integrals
 For citations please refer to: http://libint.valeyev.net

 This ORCA versions uses:
   CBLAS   interface :  Fast vector & matrix operations
   LAPACKE interface :  Fast linear algebra routines
   SCALAPACK package :  Parallel linear algebra routines


Your calculation utilizes the basis: Ahlrichs-VDZ
Cite in your paper:
H - Kr: A. Schaefer, H. Horn and R. Ahlrichs, J. Chem. Phys. 97, 2571 (1992).

Your calculation utilizes the basis: Ahlrichs SVPalls1+f
Cite in your paper:
Rb - Xe: A. Schaefer, C. Huber and R. Ahlrichs, J. Chem. Phys. 100, 5829 (1994).

================================================================================
                                        WARNINGS
                       Please study these warnings very carefully!
================================================================================
Now building the actual basis set


INFO   : the flag for use of LIBINT has been found!

================================================================================
                                       INPUT FILE
================================================================================
NAME = 6136.inp
|  1> ! RI PBE def2-SVP def2-SVP/J NBO PAL2
|  2> % maxcore 2000
|  3> % output
|  4>     # printlevel mini
|  5>     print[ P_Basis ] 0
|  6>     print[ P_SCFInfo ] 1
|  7>     print[ P_SCFIterInfo ] 1
|  8>     print[ P_OrbEn ] 0
|  9>     print[ P_Cartesian ] 0
| 10> end
| 11> *xyz 0 1
| 12>  N        1.0115300000     0.0057020000     0.0021970000 
| 13>  C        2.4462280000     0.0494720000     0.1355420000 
| 14>  C        3.0762250000     1.1208020000     1.0326120000 
| 15>  O        4.3735490000     0.6438370000     1.3077780000 
| 16>  C        4.2819020000    -0.7632130000     1.4772390000 
| 17>  C        3.0316450000    -1.1929580000     0.7575820000 
| 18>  C        2.4913950000    -2.4007860000     0.7353210000 
| 19>  H        0.6576040000     0.8407980000    -0.4456570000 
| 20>  H        0.5682800000    -0.0799020000     0.9093520000 
| 21>  H        2.8745310000     0.1667560000    -0.8687980000 
| 22>  H        2.4804750000     1.2270150000     1.9549250000 
| 23>  H        3.1666860000     2.1003860000     0.5590800000 
| 24>  H        4.2269710000    -1.0190260000     2.5446640000 
| 25>  H        5.1895640000    -1.2137590000     1.0665300000 
| 26>  H        2.9522890000    -3.2418480000     1.2422000000 
| 27>  H        1.5661070000    -2.5764860000     0.1987430000 
| 28> *
| 29> 
| 30>                          ****END OF INPUT****
================================================================================

                       ****************************
                       * Single Point Calculation *
                       ****************************

--------------------------------
INTERNAL COORDINATES (ANGSTROEM)
--------------------------------
 N      0   0   0   0.000000     0.000     0.000
 C      1   0   0   1.441546     0.000     0.000
 C      2   1   0   1.532768   118.975     0.000
 O      3   2   1   1.409348   104.837   161.060
 C      4   3   2   1.420178   107.409   321.894
 C      5   4   3   1.505234   106.225    22.750
 C      6   5   4   1.323334   127.425   185.655
 H      1   2   3   1.011544   111.353    64.522
 H      1   2   3   1.013276   110.801   303.986
 H      2   1   3   1.098134   107.868   237.372
 H      3   2   1   1.103114   109.552    41.298
 H      3   2   1   1.091788   114.037   279.200
 H      5   4   3   1.099024   110.471   262.430
 H      5   4   3   1.093400   108.051   144.387
 H      7   6   5   1.084774   121.759   357.956
 H      7   6   5   1.083948   120.316   178.208

---------------------------
INTERNAL COORDINATES (A.U.)
---------------------------
 N      0   0   0   0.000000     0.000     0.000
 C      1   0   0   2.724127     0.000     0.000
 C      2   1   0   2.896512   118.975     0.000
 O      3   2   1   2.663282   104.837   161.060
 C      4   3   2   2.683748   107.409   321.894
 C      5   4   3   2.844480   106.225    22.750
 C      6   5   4   2.500740   127.425   185.655
 H      1   2   3   1.911542   111.353    64.522
 H      1   2   3   1.914815   110.801   303.986
 H      2   1   3   2.075172   107.868   237.372
 H      3   2   1   2.084583   109.552    41.298
 H      3   2   1   2.063180   114.037   279.200
 H      5   4   3   2.076854   110.471   262.430
 H      5   4   3   2.066227   108.051   144.387
 H      7   6   5   2.049926   121.759   357.956
 H      7   6   5   2.048366   120.316   178.208



           ************************************************************
           *        Program running with 2 parallel MPI-processes     *
           *              working on a common directory               *
           ************************************************************
------------------------------------------------------------------------------
                           ORCA GTO INTEGRAL CALCULATION
                           -- RI-GTO INTEGRALS CHOSEN --
------------------------------------------------------------------------------

                         BASIS SET STATISTICS AND STARTUP INFO

Gaussian basis set:
 # of primitive gaussian shells          ...  129
 # of primitive gaussian functions       ...  231
 # of contracted shells                  ...   69
 # of contracted basis functions         ...  143
 Highest angular momentum                ...    2
 Maximum contraction depth               ...    5
Auxiliary gaussian basis set:
 # of primitive gaussian shells          ...  240
 # of primitive gaussian functions       ...  634
 # of contracted shells                  ...  150
 # of contracted aux-basis functions     ...  442
 Highest angular momentum                ...    4
 Maximum contraction depth               ...    7
Ratio of auxiliary to basis functions    ...  3.09
Integral package used                  ... LIBINT
 One Electron integrals                  ... done
 Ordering auxiliary basis shells         ... done
 Integral threshhold             Thresh  ...  1.000e-10
 Primitive cut-off               TCut    ...  1.000e-11
 Pre-screening matrix                    ... done
 Shell pair data                         ... 
 Ordering of the shell pairs             ... done (   0.000 sec) 2359 of 2415 pairs
 Determination of significant pairs      ... done (   0.000 sec)
 Creation of shell pair data             ... done (   0.000 sec)
 Storage of shell pair data              ... done (   0.000 sec)
 Shell pair data done in (   0.001 sec)
 Computing two index integrals           ... done
 Cholesky decomposition of the V-matrix  ... done


Timings:
 Total evaluation time                   ...   0.154 sec (  0.003 min)
 One electron matrix time                ...   0.017 sec (  0.000 min) = 10.9%
 Schwartz matrix evaluation time         ...   0.077 sec (  0.001 min) = 50.0%
 Two index repulsion integral time       ...   0.004 sec (  0.000 min) =  2.5%
 Cholesky decomposition of V             ...   0.003 sec (  0.000 min) =  2.1%
 Three index repulsion integral time     ...   0.000 sec (  0.000 min) =  0.0%

           ************************************************************
           *              Shut down parallel processing               *
           ************************************************************


           ************************************************************
           *        Program running with 2 parallel MPI-processes     *
           *              working on a common directory               *
           ************************************************************
-------------------------------------------------------------------------------
                                 ORCA SCF
-------------------------------------------------------------------------------

------------
SCF SETTINGS
------------
Hamiltonian:
 Density Functional     Method          .... DFT(GTOs)
 Exchange Functional    Exchange        .... PBE
   PBE kappa parameter  XKappa          ....  0.804000
 Correlation Functional Correlation     .... PBE
 LDA part of GGA corr.  LDAOpt          .... PW91-LDA
 Gradients option       PostSCFGGA      .... off
   NL short-range parameter             ....  6.400000
 RI-approximation to the Coulomb term is turned on
   Number of auxiliary basis functions  .... 442


General Settings:
 Integral files         IntName         .... 6136
 Hartree-Fock type      HFTyp           .... RHF
 Total Charge           Charge          ....    0
 Multiplicity           Mult            ....    1
 Number of Electrons    NEL             ....   54
 Basis Dimension        Dim             ....  143
 Nuclear Repulsion      ENuc            ....    314.9275134773 Eh

Convergence Acceleration:
 DIIS                   CNVDIIS         .... on
   Start iteration      DIISMaxIt       ....    12
   Startup error        DIISStart       ....  0.200000
   # of expansion vecs  DIISMaxEq       ....     5
   Bias factor          DIISBfac        ....   1.050
   Max. coefficient     DIISMaxC        ....  10.000
 Newton-Raphson         CNVNR           .... off
 SOSCF                  CNVSOSCF        .... on
   Start iteration      SOSCFMaxIt      ....   150
   Startup grad/error   SOSCFStart      ....  0.003300
 Level Shifting         CNVShift        .... on
   Level shift para.    LevelShift      ....    0.2500
   Turn off err/grad.   ShiftErr        ....    0.0010
 Zerner damping         CNVZerner       .... off
 Static damping         CNVDamp         .... on
   Fraction old density DampFac         ....    0.7000
   Max. Damping (<1)    DampMax         ....    0.9800
   Min. Damping (>=0)   DampMin         ....    0.0000
   Turn off err/grad.   DampErr         ....    0.1000
 Fernandez-Rico         CNVRico         .... off

SCF Procedure:
 Maximum # iterations   MaxIter         ....   125
 SCF integral mode      SCFMode         .... Direct
   Integral package                     .... LIBINT
 Reset frequeny         DirectResetFreq ....    20
 Integral Threshold     Thresh          ....  1.000e-10 Eh
 Primitive CutOff       TCut            ....  1.000e-11 Eh

Convergence Tolerance:
 Convergence Check Mode ConvCheckMode   .... Total+1el-Energy
 Energy Change          TolE            ....  1.000e-06 Eh
 1-El. energy change                    ....  1.000e-03 Eh
 Orbital Gradient       TolG            ....  5.000e-05
 Orbital Rotation angle TolX            ....  5.000e-05
 DIIS Error             TolErr          ....  1.000e-06


Diagonalization of the overlap matrix:
Smallest eigenvalue                        ... 9.301e-04
Time for diagonalization                   ...    0.012 sec
Threshold for overlap eigenvalues          ... 1.000e-08
Number of eigenvalues below threshold      ... 0
Time for construction of square roots      ...    0.003 sec
Total time needed                          ...    0.015 sec

-------------------
DFT GRID GENERATION
-------------------

General Integration Accuracy     IntAcc      ...  4.340
Radial Grid Type                 RadialGrid  ... Gauss-Chebyshev
Angular Grid (max. acc.)         AngularGrid ... Lebedev-110
Angular grid pruning method      GridPruning ... 3 (G Style)
Weight generation scheme         WeightScheme... Becke
Basis function cutoff            BFCut       ...    1.0000e-10
Integration weight cutoff        WCut        ...    1.0000e-14
Grids for H and He will be reduced by one unit

# of grid points (after initial pruning)     ...  18844 (   0.0 sec)
# of grid points (after weights+screening)   ...  17434 (   0.1 sec)
nearest neighbour list constructed           ...    0.0 sec
Grid point re-assignment to atoms done       ...    0.0 sec
Grid point division into batches done        ...    0.0 sec
Reduced shell lists constructed in    0.1 sec

Total number of grid points                  ...    17434
Total number of batches                      ...      280
Average number of points per batch           ...       62
Average number of grid points per atom       ...     1090
Average number of shells per batch           ...    55.93 (81.06%)
Average number of basis functions per batch  ...   115.12 (80.50%)
Average number of large shells per batch     ...    45.71 (81.73%)
Average number of large basis fcns per batch ...    92.55 (80.39%)
Maximum spatial batch extension              ...  16.57, 21.71, 17.82 au
Average spatial batch extension              ...   1.32,  1.33,  1.32 au

Time for grid setup =    0.146 sec

------------------------------
INITIAL GUESS: MODEL POTENTIAL
------------------------------
Loading Hartree-Fock densities                     ... done
Calculating cut-offs                               ... done
Setting up the integral package                    ... done
Initializing the effective Hamiltonian             ... done
Starting the Coulomb interaction                   ... done (   0.0 sec)
Reading the grid                                   ... done
Mapping shells                                     ... done
Starting the XC term evaluation                    ... done (   0.1 sec)
  promolecular density results
     # of electrons  =     53.984097835
     EX              =    -42.933209313
     EC              =     -1.792126836
     EX+EC           =    -44.725336150
Transforming the Hamiltonian                       ... done (   0.0 sec)
Diagonalizing the Hamiltonian                      ... done (   0.0 sec)
Back transforming the eigenvectors                 ... done (   0.0 sec)
Now organizing SCF variables                       ... done
                      ------------------
                      INITIAL GUESS DONE (   0.4 sec)
                      ------------------
--------------
SCF ITERATIONS
--------------
ITER       Energy         Delta-E        Max-DP      RMS-DP      [F,P]     Damp
               ***  Starting incremental Fock matrix formation  ***
  0   -325.0601677504   0.000000000000 0.08517258  0.00267993  0.2273169 0.7000
  1   -325.1436892029  -0.083521452531 0.04723901  0.00195617  0.0923822 0.7000
                               ***Turning on DIIS***
  2   -325.1732961341  -0.029606931200 0.06144398  0.00316523  0.0211421 0.0000
  3   -325.2179264893  -0.044630355195 0.03510923  0.00132830  0.0566305 0.0000
  4   -325.2305472513  -0.012620761964 0.00939292  0.00043476  0.0092207 0.0000
  5   -325.2312325691  -0.000685317794 0.00426495  0.00017906  0.0036440 0.0000
                      *** Initiating the SOSCF procedure ***
                           *** Shutting down DIIS ***
                      *** Re-Reading the Fockian *** 
                      *** Removing any level shift *** 
ITER      Energy       Delta-E        Grad      Rot      Max-DP    RMS-DP
  6   -325.23130491  -0.0000723437  0.000294  0.000294  0.003065  0.000106
               *** Restarting incremental Fock matrix formation ***
  7   -325.23130911  -0.0000042000  0.000277  0.000540  0.001619  0.000061
  8   -325.23130261   0.0000065055  0.000523  0.000350  0.001004  0.000041
  9   -325.23131144  -0.0000088348  0.000024  0.000087  0.000160  0.000007
 10   -325.23131138   0.0000000599  0.000040  0.000055  0.000102  0.000004
                  ***Gradient check signals convergence***
              ***Rediagonalizing the Fockian in SOSCF/NRSCF***

               *****************************************************
               *                     SUCCESS                       *
               *           SCF CONVERGED AFTER  11 CYCLES          *
               *****************************************************

Setting up the final grid:

General Integration Accuracy     IntAcc      ...  4.670
Radial Grid Type                 RadialGrid  ... Gauss-Chebyshev
Angular Grid (max. acc.)         AngularGrid ... Lebedev-302
Angular grid pruning method      GridPruning ... 3 (G Style)
Weight generation scheme         WeightScheme... Becke
Basis function cutoff            BFCut       ...    1.0000e-10
Integration weight cutoff        WCut        ...    1.0000e-14
Grids for H and He will be reduced by one unit

# of grid points (after initial pruning)     ...  74030 (   0.0 sec)
# of grid points (after weights+screening)   ...  67428 (   0.1 sec)
nearest neighbour list constructed           ...    0.0 sec
Grid point re-assignment to atoms done       ...    0.0 sec
Grid point division into batches done        ...    0.2 sec
Reduced shell lists constructed in    0.4 sec

Total number of grid points                  ...    67428
Total number of batches                      ...     1060
Average number of points per batch           ...       63
Average number of grid points per atom       ...     4214
Average number of shells per batch           ...    52.93 (76.71%)
Average number of basis functions per batch  ...   108.54 (75.90%)
Average number of large shells per batch     ...    42.38 (80.06%)
Average number of large basis fcns per batch ...    85.02 (78.33%)
Maximum spatial batch extension              ...  14.44, 17.91, 15.91 au
Average spatial batch extension              ...   0.86,  0.87,  0.91 au

Final grid set up in    0.6 sec
Final integration                            ... done (   0.4 sec)
Change in XC energy                          ...    -0.000434468
Integrated number of electrons               ...    54.000040843
Previous integrated no of electrons          ...    53.994992791

----------------
TOTAL SCF ENERGY
----------------

Total Energy       :         -325.23174594 Eh           -8850.00573 eV

Components:
Nuclear Repulsion  :          314.92751348 Eh            8569.61331 eV
Electronic Energy  :         -640.15925942 Eh          -17419.61905 eV

One Electron Energy:        -1064.91650454 Eh          -28977.85129 eV
Two Electron Energy:          424.75724512 Eh           11558.23225 eV

Virial components:
Potential Energy   :         -647.55761789 Eh          -17620.93861 eV
Kinetic Energy     :          322.32587195 Eh            8770.93288 eV
Virial Ratio       :            2.00901533


DFT components:
N(Alpha)           :       27.000020421652 electrons
N(Beta)            :       27.000020421652 electrons
N(Total)           :       54.000040843303 electrons
E(X)               :      -43.790911329440 Eh       
E(C)               :       -1.805576472667 Eh       
E(XC)              :      -45.596487802106 Eh       

---------------
SCF CONVERGENCE
---------------

  Last Energy change         ...   -8.8116e-08  Tolerance :   1.0000e-06
  Last MAX-Density change    ...    3.8780e-05  Tolerance :   1.0000e-05
  Last RMS-Density change    ...    1.3069e-06  Tolerance :   1.0000e-06
  Last Orbital Gradient      ...    6.8215e-06  Tolerance :   5.0000e-05
  Last Orbital Rotation      ...    3.0118e-05  Tolerance :   5.0000e-05

             **** THE GBW FILE WAS UPDATED (6136.gbw) ****
             **** DENSITY FILE WAS UPDATED (6136.scfp.tmp) ****
             **** ENERGY FILE WAS UPDATED (6136.en.tmp) ****

                    ********************************
                    * MULLIKEN POPULATION ANALYSIS *
                    ********************************

-----------------------
MULLIKEN ATOMIC CHARGES
-----------------------
   0 N :   -0.151552
   1 C :   -0.018709
   2 C :    0.239665
   3 O :   -0.357211
   4 C :    0.317401
   5 C :   -0.257170
   6 C :   -0.025541
   7 H :    0.094110
   8 H :    0.089313
   9 H :    0.029683
  10 H :   -0.018298
  11 H :    0.003812
  12 H :    0.008190
  13 H :    0.022383
  14 H :    0.005463
  15 H :    0.018461
Sum of atomic charges:   -0.0000000

--------------------------------
MULLIKEN REDUCED ORBITAL CHARGES
--------------------------------
  0 N s       :     3.379794  s :     3.379794
      pz      :     1.235200  p :     3.753596
      px      :     1.082695
      py      :     1.435701
      dz2     :     0.004286  d :     0.018162
      dxz     :     0.004185
      dyz     :     0.001462
      dx2y2   :     0.004973
      dxy     :     0.003256
  1 C s       :     3.032957  s :     3.032957
      pz      :     1.063400  p :     2.928206
      px      :     0.872387
      py      :     0.992418
      dz2     :     0.009574  d :     0.057546
      dxz     :     0.012542
      dyz     :     0.008155
      dx2y2   :     0.012301
      dxy     :     0.014973
  2 C s       :     2.960466  s :     2.960466
      pz      :     0.980360  p :     2.739751
      px      :     0.764992
      py      :     0.994399
      dz2     :     0.008414  d :     0.060118
      dxz     :     0.016616
      dyz     :     0.007135
      dx2y2   :     0.016427
      dxy     :     0.011526
  3 O s       :     3.778300  s :     3.778300
      pz      :     1.824624  p :     4.562455
      px      :     1.439582
      py      :     1.298249
      dz2     :     0.002280  d :     0.016456
      dxz     :     0.002353
      dyz     :     0.002082
      dx2y2   :     0.006147
      dxy     :     0.003594
  4 C s       :     2.898153  s :     2.898153
      pz      :     1.003080  p :     2.726024
      px      :     0.991070
      py      :     0.731875
      dz2     :     0.011217  d :     0.058423
      dxz     :     0.005320
      dyz     :     0.013808
      dx2y2   :     0.015851
      dxy     :     0.012227
  5 C s       :     3.163067  s :     3.163067
      pz      :     1.017009  p :     3.054636
      px      :     1.035300
      py      :     1.002327
      dz2     :     0.004983  d :     0.039467
      dxz     :     0.004850
      dyz     :     0.008832
      dx2y2   :     0.011378
      dxy     :     0.009425
  6 C s       :     3.124981  s :     3.124981
      pz      :     0.972268  p :     2.877256
      px      :     0.932363
      py      :     0.972624
      dz2     :     0.001245  d :     0.023304
      dxz     :     0.002345
      dyz     :     0.005722
      dx2y2   :     0.007159
      dxy     :     0.006833
  7 H s       :     0.859367  s :     0.859367
      pz      :     0.015892  p :     0.046524
      px      :     0.010839
      py      :     0.019792
  8 H s       :     0.864401  s :     0.864401
      pz      :     0.020727  p :     0.046285
      px      :     0.011536
      py      :     0.014022
  9 H s       :     0.949646  s :     0.949646
      pz      :     0.011983  p :     0.020671
      px      :     0.003995
      py      :     0.004693
 10 H s       :     0.997236  s :     0.997236
      pz      :     0.010602  p :     0.021063
      px      :     0.005889
      py      :     0.004572
 11 H s       :     0.974838  s :     0.974838
      pz      :     0.006522  p :     0.021350
      px      :     0.002911
      py      :     0.011918
 12 H s       :     0.969659  s :     0.969659
      pz      :     0.013457  p :     0.022151
      px      :     0.005170
      py      :     0.003525
 13 H s       :     0.955860  s :     0.955860
      pz      :     0.006480  p :     0.021757
      px      :     0.011053
      py      :     0.004224
 14 H s       :     0.970283  s :     0.970283
      pz      :     0.007218  p :     0.024254
      px      :     0.006553
      py      :     0.010483
 15 H s       :     0.956787  s :     0.956787
      pz      :     0.007703  p :     0.024752
      px      :     0.012160
      py      :     0.004888


                     *******************************
                     * LOEWDIN POPULATION ANALYSIS *
                     *******************************

----------------------
LOEWDIN ATOMIC CHARGES
----------------------
   0 N :   -0.078528
   1 C :   -0.016925
   2 C :    0.047700
   3 O :   -0.155258
   4 C :    0.072089
   5 C :   -0.056751
   6 C :   -0.066080
   7 H :    0.056077
   8 H :    0.052662
   9 H :    0.037748
  10 H :   -0.003324
  11 H :    0.016242
  12 H :    0.018255
  13 H :    0.027881
  14 H :    0.022509
  15 H :    0.025702

-------------------------------
LOEWDIN REDUCED ORBITAL CHARGES
-------------------------------
  0 N s       :     3.113314  s :     3.113314
      pz      :     1.307343  p :     3.921404
      px      :     1.151172
      py      :     1.462889
      dz2     :     0.010288  d :     0.043810
      dxz     :     0.010666
      dyz     :     0.003467
      dx2y2   :     0.012226
      dxy     :     0.007164
  1 C s       :     2.836501  s :     2.836501
      pz      :     1.062173  p :     3.042274
      px      :     0.942921
      py      :     1.037180
      dz2     :     0.023343  d :     0.138150
      dxz     :     0.026866
      dyz     :     0.023360
      dx2y2   :     0.030358
      dxy     :     0.034223
  2 C s       :     2.861089  s :     2.861089
      pz      :     1.049619  p :     2.948690
      px      :     0.868133
      py      :     1.030938
      dz2     :     0.017422  d :     0.142521
      dxz     :     0.041281
      dyz     :     0.019676
      dx2y2   :     0.037680
      dxy     :     0.026462
  3 O s       :     3.475562  s :     3.475562
      pz      :     1.817438  p :     4.649671
      px      :     1.490027
      py      :     1.342206
      dz2     :     0.003695  d :     0.030024
      dxz     :     0.003506
      dyz     :     0.003331
      dx2y2   :     0.012956
      dxy     :     0.006536
  4 C s       :     2.842327  s :     2.842327
      pz      :     1.067182  p :     2.946703
      px      :     1.054797
      py      :     0.824724
      dz2     :     0.028919  d :     0.138880
      dxz     :     0.014328
      dyz     :     0.030323
      dx2y2   :     0.038300
      dxy     :     0.027010
  5 C s       :     2.879662  s :     2.879662
      pz      :     0.976524  p :     3.071958
      px      :     1.018125
      py      :     1.077310
      dz2     :     0.010555  d :     0.105130
      dxz     :     0.011938
      dyz     :     0.021633
      dx2y2   :     0.031515
      dxy     :     0.029489
  6 C s       :     2.875874  s :     2.875874
      pz      :     1.019212  p :     3.121450
      px      :     1.042785
      py      :     1.059453
      dz2     :     0.004015  d :     0.068756
      dxz     :     0.006936
      dyz     :     0.015046
      dx2y2   :     0.021970
      dxy     :     0.020788
  7 H s       :     0.820167  s :     0.820167
      pz      :     0.035102  p :     0.123756
      px      :     0.027130
      py      :     0.061524
  8 H s       :     0.823770  s :     0.823770
      pz      :     0.060295  p :     0.123568
      px      :     0.029836
      py      :     0.033438
  9 H s       :     0.894711  s :     0.894711
      pz      :     0.037524  p :     0.067541
      px      :     0.015096
      py      :     0.014922
 10 H s       :     0.936119  s :     0.936119
      pz      :     0.034000  p :     0.067205
      px      :     0.019881
      py      :     0.013324
 11 H s       :     0.918220  s :     0.918220
      pz      :     0.018756  p :     0.065538
      px      :     0.009436
      py      :     0.037346
 12 H s       :     0.914743  s :     0.914743
      pz      :     0.041869  p :     0.067002
      px      :     0.013845
      py      :     0.011289
 13 H s       :     0.906146  s :     0.906146
      pz      :     0.017724  p :     0.065973
      px      :     0.033972
      py      :     0.014277
 14 H s       :     0.907433  s :     0.907433
      pz      :     0.021258  p :     0.070059
      px      :     0.019410
      py      :     0.029391
 15 H s       :     0.901727  s :     0.901727
      pz      :     0.023551  p :     0.072571
      px      :     0.036687
      py      :     0.012333


                      *****************************
                      * MAYER POPULATION ANALYSIS *
                      *****************************

  NA   - Mulliken gross atomic population
  ZA   - Total nuclear charge
  QA   - Mulliken gross atomic charge
  VA   - Mayer's total valence
  BVA  - Mayer's bonded valence
  FA   - Mayer's free valence

  ATOM       NA         ZA         QA         VA         BVA        FA
  0 N      7.1516     7.0000    -0.1516     3.1383     3.1383    -0.0000
  1 C      6.0187     6.0000    -0.0187     4.1141     4.1141     0.0000
  2 C      5.7603     6.0000     0.2397     3.9283     3.9283    -0.0000
  3 O      8.3572     8.0000    -0.3572     2.1685     2.1685     0.0000
  4 C      5.6826     6.0000     0.3174     3.8721     3.8721    -0.0000
  5 C      6.2572     6.0000    -0.2572     4.2307     4.2307    -0.0000
  6 C      6.0255     6.0000    -0.0255     3.9506     3.9506    -0.0000
  7 H      0.9059     1.0000     0.0941     0.9974     0.9974     0.0000
  8 H      0.9107     1.0000     0.0893     1.0102     1.0102     0.0000
  9 H      0.9703     1.0000     0.0297     0.9762     0.9762     0.0000
 10 H      1.0183     1.0000    -0.0183     0.9916     0.9916     0.0000
 11 H      0.9962     1.0000     0.0038     0.9829     0.9829    -0.0000
 12 H      0.9918     1.0000     0.0082     0.9824     0.9824    -0.0000
 13 H      0.9776     1.0000     0.0224     0.9844     0.9844    -0.0000
 14 H      0.9945     1.0000     0.0055     0.9780     0.9780    -0.0000
 15 H      0.9815     1.0000     0.0185     1.0050     1.0050     0.0000

  Mayer bond orders larger than 0.1
B(  0-N ,  1-C ) :   1.1461 B(  0-N ,  7-H ) :   0.9649 B(  0-N ,  8-H ) :   0.9589 
B(  1-C ,  2-C ) :   1.0160 B(  1-C ,  5-C ) :   1.0054 B(  1-C ,  9-H ) :   0.8733 
B(  2-C ,  3-O ) :   1.0128 B(  2-C , 10-H ) :   0.9158 B(  2-C , 11-H ) :   0.9325 
B(  3-O ,  4-C ) :   1.0159 B(  4-C ,  5-C ) :   1.0140 B(  4-C , 12-H ) :   0.9156 
B(  4-C , 13-H ) :   0.9258 B(  5-C ,  6-C ) :   2.0350 B(  6-C , 14-H ) :   0.9336 
B(  6-C , 15-H ) :   0.9159 


 *********************************** NBO 6.0 ***********************************
             N A T U R A L   A T O M I C   O R B I T A L   A N D
          N A T U R A L   B O N D   O R B I T A L   A N A L Y S I S
 ***************************** Kiya KiyaLu (100703) ****************************
  (c) Copyright 1996-2015 Board of Regents of the University of Wisconsin System
      on behalf of the Theoretical Chemistry Institute.  All rights reserved.

          Cite this program as:

          NBO 6.0.  E. D. Glendening, J. K. Badenhoop, A. E. Reed,
          J. E. Carpenter, J. A. Bohmann, C. M. Morales, C. R. Landis,
          and F. Weinhold (Theoretical Chemistry Institute, University
          of Wisconsin, Madison, WI, 2013); http://nbo6.chem.wisc.edu/

       /NPA    / : Natural Population Analysis
       /NBO    / : Natural Bond Orbital Analysis
       /AONBO  / : Write the AO to NBO transformation to lfn77
       /FILE   / : Set to 6136

 Filename set to 6136

 Job title:  *** NBO job generated by orca_scf

 Warning: MOs are non-orthogonal; program will continue

 Warning: -2886.31618 electrons reside outside the linearly independent MO space


 NATURAL POPULATIONS:  Natural atomic orbital occupancies

  NAO Atom No lang   Type(AO)    Occupancy      Energy
 -------------------------------------------------------
   1    N  1  s      Cor( 1s)     1.99943     -13.83476
   2    N  1  s      Val( 2s)     1.38817      -0.48575
   3    N  1  s      Ryd( 3s)     0.00054       1.06523
   4    N  1  px     Val( 2p)     1.30576      -0.17684
   5    N  1  px     Ryd( 3p)     0.00264       0.85509
   6    N  1  py     Val( 2p)     1.64813      -0.17423
   7    N  1  py     Ryd( 3p)     0.00478       0.90115
   8    N  1  pz     Val( 2p)     1.50299      -0.17002
   9    N  1  pz     Ryd( 3p)     0.00365       0.93543
  10    N  1  dxy    Ryd( 3d)     0.00072       2.41496
  11    N  1  dxz    Ryd( 3d)     0.00058       2.54367
  12    N  1  dyz    Ryd( 3d)     0.00098       2.47180
  13    N  1  dx2y2  Ryd( 3d)     0.00123       2.63654
  14    N  1  dz2    Ryd( 3d)     0.00106       2.62940

  15    C  2  s      Cor( 1s)     1.99892      -9.80370
  16    C  2  s      Val( 2s)     0.92054      -0.16769
  17    C  2  s      Ryd( 3s)     0.00299       0.86734
  18    C  2  px     Val( 2p)     0.90852      -0.06928
  19    C  2  px     Ryd( 3p)     0.00589       0.67297
  20    C  2  py     Val( 2p)     1.06295      -0.08392
  21    C  2  py     Ryd( 3p)     0.00306       0.57420
  22    C  2  pz     Val( 2p)     1.17725      -0.07573
  23    C  2  pz     Ryd( 3p)     0.00301       0.68890
  24    C  2  dxy    Ryd( 3d)     0.00141       2.05743
  25    C  2  dxz    Ryd( 3d)     0.00125       2.19617
  26    C  2  dyz    Ryd( 3d)     0.00069       2.11034
  27    C  2  dx2y2  Ryd( 3d)     0.00105       2.18105
  28    C  2  dz2    Ryd( 3d)     0.00079       2.24680

  29    C  3  s      Cor( 1s)     1.99905      -9.82445
  30    C  3  s      Val( 2s)     1.01019      -0.20078
  31    C  3  s      Ryd( 3s)     0.00202       0.79943
  32    C  3  px     Val( 2p)     0.79705      -0.06583
  33    C  3  px     Ryd( 3p)     0.00656       0.53608
  34    C  3  py     Val( 2p)     1.12476      -0.07018
  35    C  3  py     Ryd( 3p)     0.00460       0.62049
  36    C  3  pz     Val( 2p)     1.13510      -0.07475
  37    C  3  pz     Ryd( 3p)     0.00224       0.63988
  38    C  3  dxy    Ryd( 3d)     0.00118       2.06980
  39    C  3  dxz    Ryd( 3d)     0.00171       2.18273
  40    C  3  dyz    Ryd( 3d)     0.00069       2.21891
  41    C  3  dx2y2  Ryd( 3d)     0.00166       2.22278
  42    C  3  dz2    Ryd( 3d)     0.00090       2.11809

  43    O  4  s      Cor( 1s)     1.99974     -18.55799
  44    O  4  s      Val( 2s)     1.61127      -0.76237
  45    O  4  s      Ryd( 3s)     0.00038       1.49394
  46    O  4  px     Val( 2p)     1.60881      -0.26149
  47    O  4  px     Ryd( 3p)     0.00146       1.18630
  48    O  4  py     Val( 2p)     1.45794      -0.25507
  49    O  4  py     Ryd( 3p)     0.00131       1.30531
  50    O  4  pz     Val( 2p)     1.88722      -0.22939
  51    O  4  pz     Ryd( 3p)     0.00199       1.14316
  52    O  4  dxy    Ryd( 3d)     0.00121       2.79194
  53    O  4  dxz    Ryd( 3d)     0.00099       2.70605
  54    O  4  dyz    Ryd( 3d)     0.00053       2.69205
  55    O  4  dx2y2  Ryd( 3d)     0.00154       3.03751
  56    O  4  dz2    Ryd( 3d)     0.00082       2.79630

  57    C  5  s      Cor( 1s)     1.99901      -9.82655
  58    C  5  s      Val( 2s)     1.00017      -0.19511
  59    C  5  s      Ryd( 3s)     0.00207       0.79161
  60    C  5  px     Val( 2p)     1.14253      -0.06969
  61    C  5  px     Ryd( 3p)     0.00358       0.56634
  62    C  5  py     Val( 2p)     0.74837      -0.06664
  63    C  5  py     Ryd( 3p)     0.00519       0.52779
  64    C  5  pz     Val( 2p)     1.18573      -0.07050
  65    C  5  pz     Ryd( 3p)     0.00164       0.62252
  66    C  5  dxy    Ryd( 3d)     0.00127       2.12731
  67    C  5  dxz    Ryd( 3d)     0.00058       2.16165
  68    C  5  dyz    Ryd( 3d)     0.00160       2.03853
  69    C  5  dx2y2  Ryd( 3d)     0.00151       2.19234
  70    C  5  dz2    Ryd( 3d)     0.00101       2.30241

  71    C  6  s      Cor( 1s)     1.99889      -9.76702
  72    C  6  s      Val( 2s)     0.88611      -0.12220
  73    C  6  s      Ryd( 3s)     0.00317       0.51102
  74    C  6  px     Val( 2p)     1.05126      -0.07132
  75    C  6  px     Ryd( 3p)     0.00387       0.83195
  76    C  6  py     Val( 2p)     1.11134      -0.06136
  77    C  6  py     Ryd( 3p)     0.00562       0.83124
  78    C  6  pz     Val( 2p)     1.01533      -0.08640
  79    C  6  pz     Ryd( 3p)     0.00231       0.70483
  80    C  6  dxy    Ryd( 3d)     0.00065       2.25635
  81    C  6  dxz    Ryd( 3d)     0.00052       2.04033
  82    C  6  dyz    Ryd( 3d)     0.00074       2.05572
  83    C  6  dx2y2  Ryd( 3d)     0.00085       2.23163
  84    C  6  dz2    Ryd( 3d)     0.00056       2.00426

  85    C  7  s      Cor( 1s)     1.99879      -9.75203
  86    C  7  s      Val( 2s)     1.02551      -0.15101
  87    C  7  s      Ryd( 3s)     0.00051       0.55287
  88    C  7  px     Val( 2p)     1.15150      -0.04747
  89    C  7  px     Ryd( 3p)     0.00353       0.71607
  90    C  7  py     Val( 2p)     1.14115      -0.02897
  91    C  7  py     Ryd( 3p)     0.00231       0.55588
  92    C  7  pz     Val( 2p)     1.08061      -0.08024
  93    C  7  pz     Ryd( 3p)     0.00246       0.62582
  94    C  7  dxy    Ryd( 3d)     0.00061       2.25587
  95    C  7  dxz    Ryd( 3d)     0.00044       2.12204
  96    C  7  dyz    Ryd( 3d)     0.00058       2.09235
  97    C  7  dx2y2  Ryd( 3d)     0.00058       2.26780
  98    C  7  dz2    Ryd( 3d)     0.00023       1.95787

  99    H  8  s      Val( 1s)     0.63123       0.07910
 100    H  8  s      Ryd( 2s)     0.00249       0.36665
 101    H  8  px     Ryd( 2p)     0.00051       1.84360
 102    H  8  py     Ryd( 2p)     0.00114       2.15084
 103    H  8  pz     Ryd( 2p)     0.00083       1.86896

 104    H  9  s      Val( 1s)     0.63406       0.07838
 105    H  9  s      Ryd( 2s)     0.00364       0.39264
 106    H  9  px     Ryd( 2p)     0.00056       1.87178
 107    H  9  py     Ryd( 2p)     0.00077       1.70948
 108    H  9  pz     Ryd( 2p)     0.00114       2.24494

 109    H 10  s      Val( 1s)     0.75441       0.07417
 110    H 10  s      Ryd( 2s)     0.00425       0.32323
 111    H 10  px     Ryd( 2p)     0.00022       1.91231
 112    H 10  py     Ryd( 2p)     0.00013       1.72901
 113    H 10  pz     Ryd( 2p)     0.00090       2.17064

 114    H 11  s      Val( 1s)     0.82114       0.04563
 115    H 11  s      Ryd( 2s)     0.00586       0.33470
 116    H 11  px     Ryd( 2p)     0.00031       1.87073
 117    H 11  py     Ryd( 2p)     0.00011       1.79120
 118    H 11  pz     Ryd( 2p)     0.00078       2.09376

 119    H 12  s      Val( 1s)     0.78560       0.06641
 120    H 12  s      Ryd( 2s)     0.00237       0.30552
 121    H 12  px     Ryd( 2p)     0.00010       1.71739
 122    H 12  py     Ryd( 2p)     0.00079       2.18695
 123    H 12  pz     Ryd( 2p)     0.00028       1.82781

 124    H 13  s      Val( 1s)     0.79383       0.05693
 125    H 13  s      Ryd( 2s)     0.00364       0.32490
 126    H 13  px     Ryd( 2p)     0.00016       1.75908
 127    H 13  py     Ryd( 2p)     0.00016       1.75723
 128    H 13  pz     Ryd( 2p)     0.00096       2.22894

 129    H 14  s      Val( 1s)     0.77634       0.06752
 130    H 14  s      Ryd( 2s)     0.00196       0.31110
 131    H 14  px     Ryd( 2p)     0.00070       2.10003
 132    H 14  py     Ryd( 2p)     0.00021       1.80984
 133    H 14  pz     Ryd( 2p)     0.00026       1.83614

 134    H 15  s      Val( 1s)     0.78977       0.06737
 135    H 15  s      Ryd( 2s)     0.00171       0.32274
 136    H 15  px     Ryd( 2p)     0.00028       1.83105
 137    H 15  py     Ryd( 2p)     0.00054       2.12499
 138    H 15  pz     Ryd( 2p)     0.00036       1.78976

 139    H 16  s      Val( 1s)     0.77479       0.08132
 140    H 16  s      Ryd( 2s)     0.00328       0.34737
 141    H 16  px     Ryd( 2p)     0.00071       2.15848
 142    H 16  py     Ryd( 2p)     0.00013       1.78353
 143    H 16  pz     Ryd( 2p)     0.00040       1.81354

   1 low occupancy (<1.9990e) core orbital  found on  C  2
   1 low occupancy (<1.9990e) core orbital  found on  C  6
   1 low occupancy (<1.9990e) core orbital  found on  C  7


 Summary of Natural Population Analysis:

                                     Natural Population
             Natural    ---------------------------------------------
  Atom No    Charge        Core      Valence    Rydberg      Total
 --------------------------------------------------------------------
    N  1   -0.86067      1.99943     5.84506    0.01618     7.86067
    C  2   -0.08834      1.99892     4.06927    0.02015     6.08834
    C  3   -0.08769      1.99905     4.06710    0.02155     6.08769
    O  4   -0.57522      1.99974     6.56524    0.01024     8.57522
    C  5   -0.09425      1.99901     4.07680    0.01844     6.09425
    C  6   -0.08123      1.99889     4.06404    0.01830     6.08123
    C  7   -0.40879      1.99879     4.39876    0.01124     6.40879
    H  8    0.36380      0.00000     0.63123    0.00497     0.63620
    H  9    0.35984      0.00000     0.63406    0.00610     0.64016
    H 10    0.24008      0.00000     0.75441    0.00552     0.75992
    H 11    0.17179      0.00000     0.82114    0.00706     0.82821
    H 12    0.21086      0.00000     0.78560    0.00354     0.78914
    H 13    0.20126      0.00000     0.79383    0.00491     0.79874
    H 14    0.22054      0.00000     0.77634    0.00312     0.77946
    H 15    0.20733      0.00000     0.78977    0.00290     0.79267
    H 16    0.22069      0.00000     0.77479    0.00451     0.77931
 ====================================================================
 * Total *  0.00000     13.99382    39.84744    0.15874    54.00000

                                 Natural Population
 ---------------------------------------------------------
   Core                      13.99382 ( 99.9558% of   14)
   Valence                   39.84744 ( 99.6186% of   40)
   Natural Minimal Basis     53.84126 ( 99.7060% of   54)
   Natural Rydberg Basis      0.15874 (  0.2940% of   54)
 ---------------------------------------------------------

    Atom No         Natural Electron Configuration
 ----------------------------------------------------------------------------
      N  1      [core]2s( 1.39)2p( 4.46)3p( 0.01)
      C  2      [core]2s( 0.92)2p( 3.15)3p( 0.01)3d( 0.01)
      C  3      [core]2s( 1.01)2p( 3.06)3p( 0.01)3d( 0.01)
      O  4      [core]2s( 1.61)2p( 4.95)3d( 0.01)
      C  5      [core]2s( 1.00)2p( 3.08)3p( 0.01)3d( 0.01)
      C  6      [core]2s( 0.89)2p( 3.18)3p( 0.01)
      C  7      [core]2s( 1.03)2p( 3.37)3p( 0.01)
      H  8            1s( 0.63)
      H  9            1s( 0.63)
      H 10            1s( 0.75)
      H 11            1s( 0.82)2s( 0.01)
      H 12            1s( 0.79)
      H 13            1s( 0.79)
      H 14            1s( 0.78)
      H 15            1s( 0.79)
      H 16            1s( 0.77)


 NATURAL BOND ORBITAL ANALYSIS:

                            Occupancies       Lewis Structure    Low   High
         Max    Occ     -------------------  -----------------   occ   occ
  Cycle  Ctr   Thresh    Lewis   non-Lewis     CR  BD  nC  LP    (L)   (NL)
 ============================================================================
    1     2     1.90    53.43111   0.56889      7  17   0   3     0      0
 ----------------------------------------------------------------------------

 Structure accepted: No low occupancy Lewis orbitals

 -------------------------------------------------------
   Core                     13.99382 ( 99.956% of  14)
   Valence Lewis            39.43730 ( 98.593% of  40)
  ==================      =============================
   Total Lewis              53.43111 ( 98.947% of  54)
  -----------------------------------------------------
   Valence non-Lewis         0.46310 (  0.858% of  54)
   Rydberg non-Lewis         0.10579 (  0.196% of  54)
  ==================      =============================
   Total non-Lewis           0.56889 (  1.053% of  54)
 -------------------------------------------------------


     (Occupancy)   Bond orbital / Coefficients / Hybrids
 ------------------ Lewis ------------------------------------------------------
   1. (1.99943) CR ( 1) N  1            s(100.00%)
                                         1.0000  0.0000  0.0000  0.0000  0.0000
                                         0.0000  0.0000  0.0000  0.0000  0.0000
                                         0.0000  0.0000  0.0000  0.0000
   2. (1.99892) CR ( 1) C  2            s(100.00%)
                                         1.0000  0.0000  0.0000  0.0000  0.0000
                                         0.0000  0.0000  0.0000  0.0000  0.0000
                                         0.0000  0.0000  0.0000  0.0000
   3. (1.99905) CR ( 1) C  3            s(100.00%)
                                         1.0000  0.0000  0.0000  0.0000  0.0000
                                         0.0000  0.0000  0.0000  0.0000  0.0000
                                         0.0000  0.0000  0.0000  0.0000
   4. (1.99974) CR ( 1) O  4            s(100.00%)
                                         1.0000  0.0000  0.0000  0.0000  0.0000
                                         0.0000  0.0000  0.0000  0.0000  0.0000
                                         0.0000  0.0000  0.0000  0.0000
   5. (1.99901) CR ( 1) C  5            s(100.00%)
                                         1.0000  0.0000  0.0000  0.0000  0.0000
                                         0.0000  0.0000  0.0000  0.0000  0.0000
                                         0.0000  0.0000  0.0000  0.0000
   6. (1.99889) CR ( 1) C  6            s(100.00%)
                                         1.0000  0.0000  0.0000  0.0000  0.0000
                                         0.0000  0.0000  0.0000  0.0000  0.0000
                                         0.0000  0.0000  0.0000  0.0000
   7. (1.99879) CR ( 1) C  7            s(100.00%)
                                         1.0000  0.0000  0.0000  0.0000  0.0000
                                         0.0000  0.0000  0.0000  0.0000  0.0000
                                         0.0000  0.0000  0.0000  0.0000
   8. (1.93807) LP ( 1) N  1            s( 17.35%)p 4.76( 82.59%)d 0.00(  0.06%)
                                         0.0000  0.4165 -0.0056 -0.2660 -0.0062
                                        -0.7088 -0.0346 -0.5010 -0.0224 -0.0099
                                        -0.0067 -0.0187  0.0113  0.0012
   9. (1.96663) LP ( 1) O  4            s( 42.43%)p 1.36( 57.52%)d 0.00(  0.04%)
                                         0.0000  0.6514 -0.0029  0.6361 -0.0058
                                         0.4099 -0.0044  0.0506 -0.0011 -0.0176
                                        -0.0007 -0.0021 -0.0080  0.0072
  10. (1.90944) LP ( 2) O  4            s(  0.07%)p99.99( 99.87%)d 0.93(  0.06%)
                                         0.0000  0.0247 -0.0068  0.1416  0.0009
                                        -0.1383 -0.0002 -0.9795  0.0073  0.0007
                                         0.0202  0.0132 -0.0047  0.0030
  11. (1.98684) BD ( 1) N  1- C  2
               ( 59.46%)   0.7711* N  1 s( 35.85%)p 1.79( 64.08%)d 0.00(  0.06%)
                                         0.0000  0.5988 -0.0002  0.7982 -0.0038
                                         0.0104 -0.0011  0.0594  0.0075  0.0100
                                         0.0088 -0.0053  0.0191 -0.0079
               ( 40.54%)   0.6367* C  2 s( 25.00%)p 3.00( 74.90%)d 0.00(  0.09%)
                                         0.0000  0.4990  0.0321 -0.8627 -0.0300
                                        -0.0056  0.0010 -0.0584 -0.0203  0.0011
                                         0.0035 -0.0007  0.0266 -0.0151
  12. (1.98775) BD ( 1) N  1- H  8
               ( 68.45%)   0.8273* N  1 s( 23.20%)p 3.31( 76.72%)d 0.00(  0.08%)
                                         0.0000  0.4817  0.0054 -0.3399  0.0265
                                         0.6972 -0.0102 -0.4056  0.0175 -0.0107
                                        -0.0022 -0.0126 -0.0190 -0.0131
               ( 31.55%)   0.5617* H  8 s( 99.82%)p 0.00(  0.18%)
                                         0.9991 -0.0029  0.0171 -0.0313  0.0235
  13. (1.98907) BD ( 1) N  1- H  9
               ( 68.48%)   0.8276* N  1 s( 23.49%)p 3.25( 76.44%)d 0.00(  0.08%)
                                         0.0000  0.4846  0.0029 -0.4182  0.0314
                                        -0.0962  0.0098  0.7609 -0.0154 -0.0071
                                        -0.0117  0.0051  0.0036  0.0233
               ( 31.52%)   0.5614* H  9 s( 99.81%)p 0.00(  0.19%)
                                         0.9990 -0.0060  0.0215  0.0100 -0.0369
  14. (1.97650) BD ( 1) C  2- C  3
               ( 50.77%)   0.7125* C  2 s( 26.63%)p 2.75( 73.33%)d 0.00(  0.04%)
                                         0.0000  0.5160 -0.0035  0.2624 -0.0099
                                         0.6613  0.0133  0.4760 -0.0162  0.0102
                                         0.0108  0.0133 -0.0050  0.0023
               ( 49.23%)   0.7016* C  3 s( 29.78%)p 2.36( 70.18%)d 0.00(  0.04%)
                                         0.0000  0.5456 -0.0132 -0.3686 -0.0146
                                        -0.5512  0.0327 -0.5105 -0.0131  0.0088
                                         0.0076  0.0151 -0.0077  0.0000
  15. (1.95523) BD ( 1) C  2- C  6
               ( 50.10%)   0.7078* C  2 s( 26.93%)p 2.71( 73.03%)d 0.00(  0.04%)
                                         0.0000  0.5189 -0.0075  0.2843 -0.0102
                                        -0.7427 -0.0019  0.3119 -0.0231 -0.0100
                                         0.0071 -0.0133 -0.0080 -0.0035
               ( 49.90%)   0.7064* C  6 s( 30.04%)p 2.33( 69.93%)d 0.00(  0.04%)
                                         0.0000  0.5479 -0.0118 -0.3595 -0.0066
                                         0.6499 -0.0253 -0.3833 -0.0085 -0.0082
                                         0.0076 -0.0096 -0.0095 -0.0078
  16. (1.94787) BD ( 1) C  2- H 10
               ( 62.25%)   0.7890* C  2 s( 21.35%)p 3.68( 78.62%)d 0.00(  0.03%)
                                         0.0000  0.4619 -0.0090  0.3219 -0.0184
                                         0.1018 -0.0058 -0.8196  0.0048  0.0000
                                        -0.0123 -0.0021  0.0022  0.0125
               ( 37.75%)   0.6144* H 10 s( 99.87%)p 0.00(  0.13%)
                                         0.9993 -0.0081 -0.0140 -0.0030  0.0331
  17. (1.98989) BD ( 1) C  3- O  4
               ( 32.48%)   0.5699* C  3 s( 20.47%)p 3.87( 79.30%)d 0.01(  0.23%)
                                         0.0000  0.4518  0.0240  0.8174  0.0535
                                        -0.2857  0.0225  0.1994  0.0100 -0.0285
                                         0.0156 -0.0049  0.0276 -0.0218
               ( 67.52%)   0.8217* O  4 s( 29.39%)p 2.40( 70.53%)d 0.00(  0.09%)
                                         0.0000  0.5421  0.0033 -0.7575 -0.0016
                                         0.3324  0.0233 -0.1428 -0.0002 -0.0050
                                         0.0081 -0.0015  0.0235 -0.0153
  18. (1.98644) BD ( 1) C  3- H 11
               ( 59.77%)   0.7731* C  3 s( 24.62%)p 3.06( 75.33%)d 0.00(  0.04%)
                                         0.0000  0.4961 -0.0117 -0.4282  0.0095
                                         0.0844  0.0263  0.7497 -0.0018  0.0002
                                        -0.0162  0.0009  0.0045  0.0117
               ( 40.23%)   0.6343* H 11 s( 99.89%)p 0.00(  0.11%)
                                         0.9994 -0.0109  0.0161 -0.0045 -0.0279
  19. (1.98192) BD ( 1) C  3- H 12
               ( 60.87%)   0.7802* C  3 s( 25.02%)p 3.00( 74.94%)d 0.00(  0.04%)
                                         0.0000  0.5000  0.0139  0.0852  0.0095
                                         0.7781 -0.0094 -0.3692  0.0186  0.0050
                                        -0.0020 -0.0127 -0.0137 -0.0026
               ( 39.13%)   0.6255* H 12 s( 99.89%)p 0.00(  0.11%)
                                         0.9994 -0.0034 -0.0029 -0.0304  0.0135
  20. (1.99000) BD ( 1) O  4- C  5
               ( 67.34%)   0.8206* O  4 s( 28.09%)p 2.56( 71.82%)d 0.00(  0.09%)
                                         0.0000  0.5300  0.0033 -0.0132  0.0201
                                        -0.8371 -0.0094  0.1296  0.0068  0.0146
                                        -0.0011 -0.0045 -0.0195 -0.0161
               ( 32.66%)   0.5715* C  5 s( 19.95%)p 4.00( 79.83%)d 0.01(  0.23%)
                                         0.0000  0.4460  0.0236  0.0675  0.0395
                                         0.8850  0.0381 -0.0858  0.0043  0.0008
                                         0.0013 -0.0107 -0.0400 -0.0236
  21. (1.97700) BD ( 1) C  5- C  6
               ( 49.14%)   0.7010* C  5 s( 30.79%)p 2.25( 69.16%)d 0.00(  0.05%)
                                         0.0000  0.5548 -0.0127 -0.6785  0.0146
                                        -0.2655 -0.0207 -0.4001  0.0041  0.0063
                                         0.0156  0.0041  0.0127 -0.0030
               ( 50.86%)   0.7132* C  6 s( 29.54%)p 2.38( 70.42%)d 0.00(  0.04%)
                                         0.0000  0.5435 -0.0065  0.7105 -0.0026
                                         0.1752 -0.0299  0.4096  0.0015  0.0092
                                         0.0150  0.0039  0.0077 -0.0046
  22. (1.97538) BD ( 1) C  5- H 13
               ( 60.77%)   0.7796* C  5 s( 24.55%)p 3.07( 75.42%)d 0.00(  0.04%)
                                         0.0000  0.4954 -0.0057 -0.0326  0.0175
                                        -0.1649  0.0035  0.8518 -0.0054  0.0007
                                        -0.0042 -0.0071  0.0015  0.0171
               ( 39.23%)   0.6263* H 13 s( 99.89%)p 0.00(  0.11%)
                                         0.9994 -0.0086  0.0010  0.0066 -0.0329
  23. (1.97365) BD ( 1) C  5- H 14
               ( 61.31%)   0.7830* C  5 s( 24.65%)p 3.06( 75.32%)d 0.00(  0.04%)
                                         0.0000  0.4964  0.0072  0.7297 -0.0023
                                        -0.3378  0.0151 -0.3261  0.0114 -0.0103
                                        -0.0107  0.0068  0.0096 -0.0029
               ( 38.69%)   0.6220* H 14 s( 99.89%)p 0.00(  0.11%)
                                         0.9995 -0.0042 -0.0277  0.0130  0.0120
  24. (1.98187) BD ( 1) C  6- C  7
               ( 51.93%)   0.7206* C  6 s( 40.15%)p 1.49( 59.82%)d 0.00(  0.04%)
                                         0.0000  0.6333  0.0209 -0.3122 -0.0051
                                        -0.7069 -0.0316  0.0014  0.0025  0.0113
                                         0.0026 -0.0017 -0.0106 -0.0107
               ( 48.07%)   0.6934* C  7 s( 41.27%)p 1.42( 58.66%)d 0.00(  0.07%)
                                         0.0000  0.6424  0.0072  0.3125  0.0063
                                         0.6986  0.0084  0.0280 -0.0002  0.0165
                                         0.0040 -0.0002 -0.0142 -0.0143
  25. (1.96307) BD ( 2) C  6- C  7
               ( 49.61%)   0.7043* C  6 s(  0.05%)p99.99( 99.91%)d 0.87(  0.04%)
                                         0.0000  0.0165  0.0152  0.5176 -0.0087
                                        -0.2151  0.0040 -0.8274  0.0126 -0.0073
                                         0.0081  0.0153 -0.0092 -0.0005
               ( 50.39%)   0.7099* C  7 s(  0.00%)p 1.00( 99.94%)d 0.00(  0.06%)
                                         0.0000  0.0057  0.0010  0.5240 -0.0096
                                        -0.2065  0.0039 -0.8258  0.0144  0.0093
                                        -0.0079 -0.0184  0.0099 -0.0014
  26. (1.98106) BD ( 1) C  7- H 15
               ( 60.41%)   0.7773* C  7 s( 29.09%)p 2.44( 70.87%)d 0.00(  0.04%)
                                         0.0000  0.5393 -0.0030  0.3425 -0.0150
                                        -0.6642 -0.0162  0.3871 -0.0036 -0.0113
                                         0.0088 -0.0120 -0.0050 -0.0033
               ( 39.59%)   0.6292* H 15 s( 99.91%)p 0.00(  0.09%)
                                         0.9995 -0.0019 -0.0125  0.0235 -0.0138
  27. (1.97960) BD ( 1) C  7- H 16
               ( 61.23%)   0.7825* C  7 s( 29.57%)p 2.38( 70.39%)d 0.00(  0.04%)
                                         0.0000  0.5438 -0.0025 -0.7140 -0.0004
                                        -0.1640 -0.0201 -0.4084  0.0030  0.0026
                                         0.0147  0.0008  0.0109 -0.0028
               ( 38.77%)   0.6227* H 16 s( 99.90%)p 0.00(  0.10%)
                                         0.9995 -0.0045  0.0268  0.0031  0.0162
 ---------------- non-Lewis ----------------------------------------------------
  28. (0.01840) BD*( 1) N  1- C  2
               ( 40.54%)   0.6367* N  1 s( 35.85%)p 1.79( 64.08%)d 0.00(  0.06%)
                                         0.0000 -0.5988  0.0002 -0.7982  0.0038
                                        -0.0104  0.0011 -0.0594 -0.0075 -0.0100
                                        -0.0088  0.0053 -0.0191  0.0079
               ( 59.46%)  -0.7711* C  2 s( 25.00%)p 3.00( 74.90%)d 0.00(  0.09%)
                                         0.0000 -0.4990 -0.0321  0.8627  0.0300
                                         0.0056 -0.0010  0.0584  0.0203 -0.0011
                                        -0.0035  0.0007 -0.0266  0.0151
  29. (0.00765) BD*( 1) N  1- H  8
               ( 31.55%)   0.5617* N  1 s( 23.20%)p 3.31( 76.72%)d 0.00(  0.08%)
                                         0.0000 -0.4817 -0.0054  0.3399 -0.0265
                                        -0.6972  0.0102  0.4056 -0.0175  0.0107
                                         0.0022  0.0126  0.0190  0.0131
               ( 68.45%)  -0.8273* H  8 s( 99.82%)p 0.00(  0.18%)
                                        -0.9991  0.0029 -0.0171  0.0313 -0.0235
  30. (0.01221) BD*( 1) N  1- H  9
               ( 31.52%)   0.5614* N  1 s( 23.49%)p 3.25( 76.44%)d 0.00(  0.08%)
                                         0.0000 -0.4846 -0.0029  0.4182 -0.0314
                                         0.0962 -0.0098 -0.7609  0.0154  0.0071
                                         0.0117 -0.0051 -0.0036 -0.0233
               ( 68.48%)  -0.8276* H  9 s( 99.81%)p 0.00(  0.19%)
                                        -0.9990  0.0060 -0.0215 -0.0100  0.0369
  31. (0.05323) BD*( 1) C  2- C  3
               ( 49.23%)   0.7016* C  2 s( 26.63%)p 2.75( 73.33%)d 0.00(  0.04%)
                                         0.0000 -0.5160  0.0035 -0.2624  0.0099
                                        -0.6613 -0.0133 -0.4760  0.0162 -0.0102
                                        -0.0108 -0.0133  0.0050 -0.0023
               ( 50.77%)  -0.7125* C  3 s( 29.78%)p 2.36( 70.18%)d 0.00(  0.04%)
                                         0.0000 -0.5456  0.0132  0.3686  0.0146
                                         0.5512 -0.0327  0.5105  0.0131 -0.0088
                                        -0.0076 -0.0151  0.0077  0.0000
  32. (0.04780) BD*( 1) C  2- C  6
               ( 49.90%)   0.7064* C  2 s( 26.93%)p 2.71( 73.03%)d 0.00(  0.04%)
                                         0.0000 -0.5189  0.0075 -0.2843  0.0102
                                         0.7427  0.0019 -0.3119  0.0231  0.0100
                                        -0.0071  0.0133  0.0080  0.0035
               ( 50.10%)  -0.7078* C  6 s( 30.04%)p 2.33( 69.93%)d 0.00(  0.04%)
                                         0.0000 -0.5479  0.0118  0.3595  0.0066
                                        -0.6499  0.0253  0.3833  0.0085  0.0082
                                        -0.0076  0.0096  0.0095  0.0078
  33. (0.03206) BD*( 1) C  2- H 10
               ( 37.75%)   0.6144* C  2 s( 21.35%)p 3.68( 78.62%)d 0.00(  0.03%)
                                         0.0000 -0.4619  0.0090 -0.3219  0.0184
                                        -0.1018  0.0058  0.8196 -0.0048  0.0000
                                         0.0123  0.0021 -0.0022 -0.0125
               ( 62.25%)  -0.7890* H 10 s( 99.87%)p 0.00(  0.13%)
                                        -0.9993  0.0081  0.0140  0.0030 -0.0331
  34. (0.01913) BD*( 1) C  3- O  4
               ( 67.52%)   0.8217* C  3 s( 20.47%)p 3.87( 79.30%)d 0.01(  0.23%)
                                         0.0000  0.4518  0.0240  0.8174  0.0535
                                        -0.2857  0.0225  0.1994  0.0100 -0.0285
                                         0.0156 -0.0049  0.0276 -0.0218
               ( 32.48%)  -0.5699* O  4 s( 29.39%)p 2.40( 70.53%)d 0.00(  0.09%)
                                         0.0000  0.5421  0.0033 -0.7575 -0.0016
                                         0.3324  0.0233 -0.1428 -0.0002 -0.0050
                                         0.0081 -0.0015  0.0235 -0.0153
  35. (0.03818) BD*( 1) C  3- H 11
               ( 40.23%)   0.6343* C  3 s( 24.62%)p 3.06( 75.33%)d 0.00(  0.04%)
                                         0.0000 -0.4961  0.0117  0.4282 -0.0095
                                        -0.0844 -0.0263 -0.7497  0.0018 -0.0002
                                         0.0162 -0.0009 -0.0045 -0.0117
               ( 59.77%)  -0.7731* H 11 s( 99.89%)p 0.00(  0.11%)
                                        -0.9994  0.0109 -0.0161  0.0045  0.0279
  36. (0.01808) BD*( 1) C  3- H 12
               ( 39.13%)   0.6255* C  3 s( 25.02%)p 3.00( 74.94%)d 0.00(  0.04%)
                                         0.0000 -0.5000 -0.0139 -0.0852 -0.0095
                                        -0.7781  0.0094  0.3692 -0.0186 -0.0050
                                         0.0020  0.0127  0.0137  0.0026
               ( 60.87%)  -0.7802* H 12 s( 99.89%)p 0.00(  0.11%)
                                        -0.9994  0.0034  0.0029  0.0304 -0.0135
  37. (0.01687) BD*( 1) O  4- C  5
               ( 32.66%)   0.5715* O  4 s( 28.09%)p 2.56( 71.82%)d 0.00(  0.09%)
                                         0.0000 -0.5300 -0.0033  0.0132 -0.0201
                                         0.8371  0.0094 -0.1296 -0.0068 -0.0146
                                         0.0011  0.0045  0.0195  0.0161
               ( 67.34%)  -0.8206* C  5 s( 19.95%)p 4.00( 79.83%)d 0.01(  0.23%)
                                         0.0000 -0.4460 -0.0236 -0.0675 -0.0395
                                        -0.8850 -0.0381  0.0858 -0.0043 -0.0008
                                        -0.0013  0.0107  0.0400  0.0236
  38. (0.03679) BD*( 1) C  5- C  6
               ( 50.86%)   0.7132* C  5 s( 30.79%)p 2.25( 69.16%)d 0.00(  0.05%)
                                         0.0000  0.5548 -0.0127 -0.6785  0.0146
                                        -0.2655 -0.0207 -0.4001  0.0041  0.0063
                                         0.0156  0.0041  0.0127 -0.0030
               ( 49.14%)  -0.7010* C  6 s( 29.54%)p 2.38( 70.42%)d 0.00(  0.04%)
                                         0.0000  0.5435 -0.0065  0.7105 -0.0026
                                         0.1752 -0.0299  0.4096  0.0015  0.0092
                                         0.0150  0.0039  0.0077 -0.0046
  39. (0.03256) BD*( 1) C  5- H 13
               ( 39.23%)   0.6263* C  5 s( 24.55%)p 3.07( 75.42%)d 0.00(  0.04%)
                                         0.0000 -0.4954  0.0057  0.0326 -0.0175
                                         0.1649 -0.0035 -0.8518  0.0054 -0.0007
                                         0.0042  0.0071 -0.0015 -0.0171
               ( 60.77%)  -0.7796* H 13 s( 99.89%)p 0.00(  0.11%)
                                        -0.9994  0.0086 -0.0010 -0.0066  0.0329
  40. (0.02201) BD*( 1) C  5- H 14
               ( 38.69%)   0.6220* C  5 s( 24.65%)p 3.06( 75.32%)d 0.00(  0.04%)
                                         0.0000 -0.4964 -0.0072 -0.7297  0.0023
                                         0.3378 -0.0151  0.3261 -0.0114  0.0103
                                         0.0107 -0.0068 -0.0096  0.0029
               ( 61.31%)  -0.7830* H 14 s( 99.89%)p 0.00(  0.11%)
                                        -0.9995  0.0042  0.0277 -0.0130 -0.0120
  41. (0.01748) BD*( 1) C  6- C  7
               ( 48.07%)   0.6934* C  6 s( 40.15%)p 1.49( 59.82%)d 0.00(  0.04%)
                                         0.0000 -0.6333 -0.0209  0.3122  0.0051
                                         0.7069  0.0316 -0.0014 -0.0025 -0.0113
                                        -0.0026  0.0017  0.0106  0.0107
               ( 51.93%)  -0.7206* C  7 s( 41.27%)p 1.42( 58.66%)d 0.00(  0.07%)
                                         0.0000 -0.6424 -0.0072 -0.3125 -0.0063
                                        -0.6986 -0.0084 -0.0280  0.0002 -0.0165
                                        -0.0040  0.0002  0.0142  0.0143
  42. (0.06718) BD*( 2) C  6- C  7
               ( 50.39%)   0.7099* C  6 s(  0.05%)p99.99( 99.91%)d 0.87(  0.04%)
                                         0.0000  0.0165  0.0152  0.5176 -0.0087
                                        -0.2151  0.0040 -0.8274  0.0126 -0.0073
                                         0.0081  0.0153 -0.0092 -0.0005
               ( 49.61%)  -0.7043* C  7 s(  0.00%)p 1.00( 99.94%)d 0.00(  0.06%)
                                         0.0000  0.0057  0.0010  0.5240 -0.0096
                                        -0.2065  0.0039 -0.8258  0.0144  0.0093
                                        -0.0079 -0.0184  0.0099 -0.0014
  43. (0.01035) BD*( 1) C  7- H 15
               ( 39.59%)   0.6292* C  7 s( 29.09%)p 2.44( 70.87%)d 0.00(  0.04%)
                                         0.0000 -0.5393  0.0030 -0.3425  0.0150
                                         0.6642  0.0162 -0.3871  0.0036  0.0113
                                        -0.0088  0.0120  0.0050  0.0033
               ( 60.41%)  -0.7773* H 15 s( 99.91%)p 0.00(  0.09%)
                                        -0.9995  0.0019  0.0125 -0.0235  0.0138
  44. (0.01312) BD*( 1) C  7- H 16
               ( 38.77%)   0.6227* C  7 s( 29.57%)p 2.38( 70.39%)d 0.00(  0.04%)
                                         0.0000 -0.5438  0.0025  0.7140  0.0004
                                         0.1640  0.0201  0.4084 -0.0030 -0.0026
                                        -0.0147 -0.0008 -0.0109  0.0028
               ( 61.23%)  -0.7825* H 16 s( 99.90%)p 0.00(  0.10%)
                                        -0.9995  0.0045 -0.0268 -0.0031 -0.0162
  45. (0.00292) RY ( 1) N  1            s(  0.26%)p99.99( 94.47%)d20.20(  5.26%)
                                         0.0000  0.0091  0.0502 -0.0060  0.1024
                                        -0.0315  0.7623 -0.0188  0.5931 -0.1790
                                        -0.1387 -0.0302  0.0207 -0.0066
  46. (0.00154) RY ( 2) N  1            s(  7.00%)p11.37( 79.54%)d 1.92( 13.47%)
                                         0.0000  0.0075  0.2644  0.0023 -0.1337
                                         0.0103  0.5382 -0.0153 -0.6982 -0.2331
                                         0.2755 -0.0443 -0.0392 -0.0299
  47. (0.00043) RY ( 3) N  1            s( 65.79%)p 0.48( 31.49%)d 0.04(  2.72%)
                                         0.0000  0.0072  0.8111 -0.0110 -0.4958
                                         0.0020 -0.1586  0.0114  0.2090  0.0707
                                        -0.1233 -0.0721  0.0305  0.0295
  48. (0.00017) RY ( 4) N  1            s( 19.95%)p 3.24( 64.54%)d 0.78( 15.51%)
                                         0.0000 -0.0238  0.4460  0.0272  0.7788
                                        -0.0093 -0.0775 -0.0133 -0.1786 -0.0363
                                        -0.3843 -0.0547  0.0542 -0.0125
  49. (0.00005) RY ( 5) N  1            s(  2.64%)p 5.87( 15.47%)d31.05( 81.89%)
  50. (0.00003) RY ( 6) N  1            s(  0.21%)p18.83(  3.99%)d99.99( 95.80%)
  51. (0.00001) RY ( 7) N  1            s(  0.10%)p30.86(  3.06%)d99.99( 96.85%)
  52. (0.00000) RY ( 8) N  1            s(  3.79%)p 1.35(  5.12%)d24.01( 91.09%)
  53. (0.00000) RY ( 9) N  1            s(  0.37%)p 6.76(  2.50%)d99.99( 97.13%)
  54. (0.00624) RY ( 1) C  2            s(  0.32%)p99.99( 94.63%)d15.64(  5.05%)
                                         0.0000 -0.0322  0.0468  0.0128 -0.7755
                                         0.0086 -0.4948  0.0084 -0.3159 -0.1393
                                        -0.1501  0.0090 -0.0919 -0.0069
  55. (0.00322) RY ( 2) C  2            s( 50.56%)p 0.70( 35.40%)d 0.28( 14.03%)
                                         0.0000 -0.0111  0.7110  0.0294  0.2799
                                         0.0045 -0.1220 -0.0184 -0.5095 -0.0125
                                         0.2709  0.0164  0.0127 -0.2576
  56. (0.00228) RY ( 3) C  2            s(  0.39%)p99.99( 77.17%)d56.87( 22.43%)
                                         0.0000 -0.0270  0.0567  0.0144 -0.4931
                                        -0.0138  0.7047 -0.0122 -0.1774  0.3134
                                         0.2928  0.1760  0.0828 -0.0507
  57. (0.00152) RY ( 4) C  2            s( 13.27%)p 2.66( 35.27%)d 3.88( 51.46%)
                                         0.0000  0.0088  0.3642  0.0076 -0.1069
                                        -0.0126 -0.3266  0.0106  0.4840  0.6929
                                         0.0926  0.0480 -0.0277  0.1514
  58. (0.00078) RY ( 5) C  2            s( 29.67%)p 0.98( 29.20%)d 1.39( 41.13%)
                                         0.0000  0.0006  0.5447  0.0232 -0.2025
                                         0.0008  0.2307  0.0151  0.4438 -0.4900
                                        -0.2266 -0.0941  0.3199  0.0929
  59. (0.00062) RY ( 6) C  2            s(  0.64%)p 4.06(  2.61%)d99.99( 96.75%)
                                         0.0000  0.0027  0.0801  0.0076  0.0454
                                        -0.0043  0.1482  0.0037 -0.0442  0.2689
                                        -0.7669  0.1503 -0.0884 -0.5260
  60. (0.00034) RY ( 7) C  2            s(  2.19%)p 2.42(  5.29%)d42.30( 92.52%)
                                         0.0000  0.0027  0.1479 -0.0148 -0.0620
                                         0.0105  0.2150 -0.0040  0.0500 -0.0150
                                        -0.0191 -0.6092 -0.7426  0.0440
  61. (0.00030) RY ( 8) C  2            s(  0.96%)p 3.93(  3.79%)d98.72( 95.24%)
                                         0.0000  0.0105  0.0977 -0.0137  0.0202
                                        -0.0103  0.0183 -0.0056  0.1920 -0.2683
                                         0.0963  0.7409 -0.5666  0.0349
  62. (0.00005) RY ( 9) C  2            s(  2.08%)p 8.06( 16.75%)d39.03( 81.17%)
  63. (0.00515) RY ( 1) C  3            s(  5.31%)p15.52( 82.35%)d 2.33( 12.34%)
                                         0.0000 -0.0172  0.2297 -0.0531  0.8313
                                        -0.0174 -0.2127 -0.0169  0.2896 -0.2380
                                        -0.1703 -0.0217 -0.1706 -0.0904
  64. (0.00390) RY ( 2) C  3            s(  6.12%)p13.31( 81.45%)d 2.03( 12.43%)
                                         0.0000  0.0321  0.2453  0.0035 -0.4436
                                        -0.0344 -0.6612  0.0237  0.4228  0.0280
                                         0.0504 -0.1274 -0.2771 -0.1670
  65. (0.00180) RY ( 3) C  3            s( 15.97%)p 0.32(  5.16%)d 4.94( 78.87%)
                                         0.0000 -0.0064  0.3996 -0.0204  0.1246
                                         0.0022  0.0729  0.0085 -0.1738  0.0328
                                         0.7941 -0.2492 -0.1758  0.2532
  66. (0.00084) RY ( 4) C  3            s(  6.23%)p11.81( 73.58%)d 3.24( 20.18%)
                                         0.0000  0.0185  0.2490 -0.0064  0.1252
                                        -0.0009 -0.5338  0.0019 -0.6596  0.2346
                                        -0.0831  0.1857  0.2949 -0.1359
  67. (0.00078) RY ( 5) C  3            s( 17.49%)p 1.29( 22.58%)d 3.43( 59.93%)
                                         0.0000 -0.0154  0.4180 -0.0331  0.0001
                                         0.0043  0.2299 -0.0078  0.4144  0.2853
                                         0.0801 -0.0011  0.6601 -0.2752
  68. (0.00040) RY ( 6) C  3            s( 39.11%)p 0.43( 16.89%)d 1.13( 44.00%)
                                         0.0000 -0.0051  0.6253 -0.0084 -0.2754
                                         0.0038  0.2357 -0.0056 -0.1935 -0.5606
                                        -0.3425  0.0143 -0.0394  0.0811
  69. (0.00018) RY ( 7) C  3            s(  8.85%)p 0.41(  3.58%)d 9.90( 87.57%)
                                         0.0000 -0.0008  0.2974  0.0306  0.0166
                                        -0.0074  0.1492  0.0088  0.1106  0.5819
                                        -0.2309  0.4444 -0.3694  0.3871
  70. (0.00010) RY ( 8) C  3            s(  0.83%)p16.75( 13.89%)d99.99( 85.28%)
  71. (0.00002) RY ( 9) C  3            s(  0.20%)p 3.84(  0.76%)d99.99( 99.04%)
  72. (0.00200) RY ( 1) O  4            s(  2.81%)p33.04( 92.89%)d 1.53(  4.30%)
                                         0.0000 -0.0005  0.1677  0.0019  0.2567
                                        -0.0008  0.0140 -0.0029 -0.9289 -0.0445
                                         0.1749  0.0715 -0.0581 -0.0438
  73. (0.00152) RY ( 2) O  4            s(  5.50%)p13.64( 74.98%)d 3.55( 19.52%)
                                         0.0000 -0.0114  0.2342  0.0067  0.6773
                                         0.0054  0.4768 -0.0013  0.2524 -0.3779
                                        -0.0235 -0.1406 -0.1734 -0.0444
  74. (0.00025) RY ( 3) O  4            s(  5.63%)p 5.38( 30.27%)d11.39( 64.10%)
                                         0.0000  0.0000  0.2373  0.0094 -0.3316
                                        -0.0091  0.4375  0.0016 -0.0350  0.2584
                                         0.4018 -0.5965 -0.0178  0.2380
  75. (0.00016) RY ( 4) O  4            s( 44.95%)p 0.45( 20.15%)d 0.78( 34.91%)
                                         0.0000 -0.0003  0.6704  0.0161 -0.3722
                                        -0.0186  0.2494 -0.0014  0.0115 -0.1823
                                        -0.1887  0.3627  0.3329 -0.1946
  76. (0.00009) RY ( 5) O  4            s(  7.04%)p 0.14(  0.99%)d13.07( 91.97%)
  77. (0.00007) RY ( 6) O  4            s( 32.67%)p 1.72( 56.28%)d 0.34( 11.05%)
  78. (0.00003) RY ( 7) O  4            s(  0.32%)p57.18( 18.29%)d99.99( 81.39%)
  79. (0.00002) RY ( 8) O  4            s(  1.10%)p 0.98(  1.07%)d89.06( 97.83%)
  80. (0.00000) RY ( 9) O  4            s(  0.01%)p99.99(  5.33%)d99.99( 94.66%)
  81. (0.00462) RY ( 1) C  5            s(  1.96%)p41.94( 82.35%)d 7.99( 15.69%)
                                         0.0000 -0.0197  0.1387 -0.0254  0.2196
                                        -0.0364  0.8625 -0.0067 -0.1712 -0.3631
                                         0.0696 -0.1183  0.0323  0.0717
  82. (0.00274) RY ( 2) C  5            s( 30.12%)p 1.61( 48.41%)d 0.71( 21.47%)
                                         0.0000  0.0186  0.5485 -0.0213 -0.6811
                                         0.0077  0.0270  0.0148  0.1368 -0.3232
                                        -0.0129  0.2457  0.0574 -0.2156
  83. (0.00175) RY ( 3) C  5            s(  4.38%)p11.17( 48.87%)d10.68( 46.75%)
                                         0.0000 -0.0001  0.2092  0.0092  0.1888
                                        -0.0067 -0.1299 -0.0015 -0.6603  0.0412
                                         0.2458  0.6021 -0.1992  0.0561
  84. (0.00135) RY ( 4) C  5            s(  0.05%)p99.99( 54.57%)d99.99( 45.38%)
                                         0.0000  0.0204  0.0099  0.0069 -0.4203
                                         0.0200 -0.1241 -0.0129 -0.5942  0.0101
                                         0.1006 -0.5858  0.1023  0.2999
  85. (0.00096) RY ( 5) C  5            s( 56.46%)p 0.24( 13.61%)d 0.53( 29.93%)
                                         0.0000 -0.0157  0.7512 -0.0052  0.3406
                                        -0.0408 -0.1077 -0.0026  0.0821  0.2754
                                        -0.0948 -0.3701 -0.2766 -0.0315
  86. (0.00035) RY ( 6) C  5            s(  0.51%)p23.02( 11.66%)d99.99( 87.84%)
                                         0.0000  0.0016  0.0711 -0.0005 -0.0938
                                         0.0056  0.2895  0.0065 -0.1546  0.6736
                                        -0.0411  0.0794  0.5373 -0.3576
  87. (0.00009) RY ( 7) C  5            s(  0.66%)p29.87( 19.65%)d99.99( 79.69%)
  88. (0.00005) RY ( 8) C  5            s(  5.83%)p 3.17( 18.48%)d12.99( 75.69%)
  89. (0.00001) RY ( 9) C  5            s(  0.11%)p24.99(  2.68%)d99.99( 97.21%)
  90. (0.00457) RY ( 1) C  6            s(  1.89%)p49.89( 94.52%)d 1.89(  3.58%)
                                         0.0000 -0.0333  0.1336 -0.0049 -0.8042
                                         0.0027 -0.5448  0.0046 -0.0417 -0.0458
                                         0.0947  0.0723  0.1106  0.0852
  91. (0.00404) RY ( 2) C  6            s( 22.42%)p 2.88( 64.49%)d 0.58( 13.09%)
                                         0.0000  0.0192  0.4731 -0.0093 -0.2840
                                         0.0209  0.4843  0.0202  0.5733 -0.0623
                                         0.0578  0.2674 -0.2080 -0.0943
  92. (0.00281) RY ( 3) C  6            s( 23.50%)p 2.92( 68.53%)d 0.34(  7.97%)
                                         0.0000 -0.0288  0.4839  0.0020  0.4374
[...]
  2 C                -2.6      -2.9     132.4     159.6     134.5     155.1
  3 O                 0.0      -0.0     -14.1      -1.8      -5.6      -4.6
  4 C                 0.5       0.1     -11.3      -8.3      -1.8      -3.6
  5 C                -3.5      -0.8       1.6       1.7       1.3       3.1
  6 C                -0.2       0.0       0.0      -0.2      -0.0       0.1
  7 H                 0.0      -0.0      -0.2       0.0      -0.0      -0.0
  8 H                -0.0       0.3      -0.0       0.1      -0.0      -0.1
  9 H                -1.9     -13.8      -0.1      -0.1       0.1       0.6
 10 H                -0.3       0.1      -1.4     -12.5      -5.4      -4.3
 11 H                -0.0       0.2      -1.4     -11.1      -7.3      -2.1
 13 H                 0.0      -0.0      -0.1      -0.2      -0.1      -0.1

                     66        67        68        69        70        71   
                   0.00000   0.00000   0.00000   0.00000   0.00000   0.00000
                   0.00078   0.00040   0.00018   0.00010   0.00002   0.00200
                  --------  --------  --------  --------  --------  --------
  0 N                 0.1       1.7       0.1      -0.3       0.0      -0.1
  1 C                -0.6     -48.4      -2.0      -3.9      -1.7       0.2
  2 C               123.1     175.0     117.8     119.7     108.2      -5.8
  3 O                -0.6      -2.4      -6.6      -0.0      -0.7     111.0
  4 C                -1.1      -1.1      -0.6      -0.4       0.1      -5.0
  5 C                -0.1       1.6      -0.0      -0.9      -0.2      -0.1
  6 C                -0.1       0.0       0.0      -0.3      -0.0      -0.0
  9 H                -0.3       0.2      -0.0       0.2      -0.0      -0.0
 10 H               -13.9      -9.3      -4.6      -3.5      -2.1       0.1
 11 H                -6.4     -17.5      -4.2     -10.5      -3.6      -0.1
 12 H                 0.1      -0.1      -0.0       0.0      -0.0       0.1

                     72        73        74        75        76        77   
                   0.00000   0.00000   0.00000   0.00000   0.00000   0.00000
                   0.00152   0.00025   0.00016   0.00009   0.00007   0.00003
                  --------  --------  --------  --------  --------  --------
  0 N                -0.1      -0.0      -0.0      -0.0      -0.0      -0.1
  1 C                -0.2       0.3       0.6       0.1      -0.4      -0.1
  2 C                -2.5      -8.5     -12.6      -3.2      -2.8      -1.2
  3 O               106.5     110.2     115.3     104.5     125.0     104.3
  4 C                -2.9      -1.6      -2.1      -1.1     -23.3      -2.0
  5 C                -0.6      -0.3      -0.3       0.0       1.8      -0.5
  6 C                -0.1       0.0      -0.1      -0.0      -0.1      -0.1
 10 H                -0.0      -0.1      -0.0      -0.1      -0.4      -0.0
 11 H                 0.0       0.1      -0.0      -0.1       0.2      -0.1
 12 H                -0.0      -0.0      -0.3       0.0      -0.0      -0.1
 13 H                 0.0      -0.1      -0.2       0.0       0.2      -0.1

                     78        79        80        81        82        83   
                   0.00000   0.00000   0.00000   0.00000   0.00000   0.00000
                   0.00002   0.00000   0.00462   0.00274   0.00175   0.00135
                  --------  --------  --------  --------  --------  --------
  0 N                -0.0      -0.0      -0.1      -0.1      -0.2      -0.0
  1 C                -0.2      -0.1       0.0       2.6      -0.2      -2.0
  2 C                -0.9      -0.8      -6.0     -14.4      -0.1      -0.2
  3 O               101.5     101.9     -14.7      -3.2      -6.0      -0.6
  4 C                -0.5      -0.9     132.9     195.6     137.2     132.7
  5 C                 0.1      -0.1      -6.6     -66.0     -12.3     -20.6
  6 C                 0.0      -0.0      -1.3      -0.4      -1.3       0.9
  9 H                 0.0      -0.0      -0.0       0.2      -0.0      -0.0
 10 H                -0.0      -0.0      -0.0       0.2      -0.1       0.0
 11 H                -0.0      -0.0       0.0      -0.1      -0.0      -0.0
 12 H                -0.0      -0.0      -1.5     -13.0      -6.6      -7.9
 13 H                -0.0      -0.0      -2.3      -0.6     -10.3      -2.2
 14 H                -0.0      -0.0      -0.4      -0.7      -0.1      -0.3
 15 H                -0.0      -0.0      -0.0       0.1       0.0       0.1

                     84        85        86        87        88        89   
                   0.00000   0.00000   0.00000   0.00000   0.00000   0.00000
                   0.00096   0.00035   0.00009   0.00005   0.00001   0.00457
                  --------  --------  --------  --------  --------  --------
  0 N                -0.2      -0.0       0.0      -0.0      -0.0      -0.7
  1 C                 0.3       1.6       0.0       1.0       0.1     -22.4
  2 C                -3.6      -1.6      -2.6      -0.5      -0.2      -0.9
  3 O                -5.1      -3.0      -1.5      -2.3      -0.8       0.1
  4 C               174.4     112.2     119.7     122.2     108.1     -31.5
  5 C               -24.1      -6.0      -3.1      -7.0      -2.6     255.6
  6 C                -0.8       0.2       0.1       1.5      -0.1    -101.2
  8 H                 0.0      -0.0      -0.0      -0.0       0.0       0.2
  9 H                 0.0      -0.0       0.0      -0.0      -0.0      -0.3
 10 H                 0.0      -0.1       0.1      -0.0      -0.0       0.1
 11 H                -0.0      -0.0      -0.0      -0.0      -0.0      -0.1
 12 H               -15.5      -2.2      -6.0      -4.3      -2.0      -0.1
 13 H               -25.2      -0.8      -6.7     -10.5      -2.4       0.5
 14 H                -0.4      -0.2      -0.0      -0.2       0.0      -1.6
 15 H                 0.0      -0.0      -0.0      -0.0       0.0       2.5

                     90        91        92        93        94        95   
                   0.00000   0.00000   0.00000   0.00000   0.00000   0.00000
                   0.00404   0.00281   0.00153   0.00038   0.00031   0.00023
                  --------  --------  --------  --------  --------  --------
  0 N                 0.7      -0.9       1.8      -0.3       0.4       0.1
  1 C               -37.5      -6.8     -85.4      -1.0      -9.4      -1.7
  2 C                 4.7      -1.0       3.0       0.0       0.0      -0.2
  3 O                 0.1      -0.6      -0.3      -0.1      -0.2       0.0
  4 C               -25.6     -65.4     -10.9      -1.6      -2.3      -1.9
  5 C               165.7     258.4     221.9     103.8     117.5     107.8
  6 C                -6.9     -87.2     -30.0      -0.5      -6.0      -3.8
  7 H                -0.0      -0.1      -0.1      -0.0       0.0      -0.0
  8 H                -0.2       0.0      -0.0      -0.0       0.0       0.0
  9 H                -0.2       0.3       0.4      -0.1      -0.6      -0.1
 10 H                -0.2       0.0      -0.1      -0.0      -0.0       0.0
 11 H                -0.2      -0.1      -0.2      -0.0       0.0      -0.0
 12 H                -0.0       0.9      -0.1      -0.3       0.2      -0.1
 13 H                -0.1       0.2      -0.8       0.1      -0.1      -0.3
 14 H                -0.1       3.8      -0.5      -0.0       0.3       0.0
 15 H                -0.1      -1.7       1.1      -0.0       0.1       0.1

                     96        97        98        99       100       101   
                   0.00000   0.00000   0.00000   0.00000   0.00000   0.00000
                   0.00005   0.00004   0.00581   0.00103   0.00056   0.00010
                  --------  --------  --------  --------  --------  --------
  0 N                -0.1      -0.1      -0.8      -0.8      -0.3       0.0
  1 C                -4.2       0.1       3.3      -5.4      -0.2      -0.2
  2 C                -0.1      -0.1      -0.1      -0.2      -0.0      -0.1
  3 O                -0.2      -0.0      -0.1      -0.2      -0.0      -0.1
  4 C                -4.3      -0.6       1.5      -4.2      -0.0      -0.2
  5 C               111.9     101.2     -39.7    -145.7     -14.1     -15.1
  6 C                -3.5      -0.3     177.2     259.4     116.4     155.0
  8 H                -0.0      -0.0      -0.2      -0.2      -0.3      -0.0
  9 H                 0.3       0.0      -0.1       0.3      -0.0      -0.0
 11 H                -0.0      -0.0      -0.0      -0.1       0.0      -0.0
 12 H                 0.3      -0.0      -0.2      -0.3      -0.2       0.0
 13 H                 0.2       0.0      -0.1       0.1      -0.0      -0.0
 14 H                -0.0      -0.1     -21.3      -1.4      -0.9     -20.4
 15 H                -0.0      -0.1     -19.5      -1.1      -0.4     -18.9

                    102       103       104       105       106       107   
                   0.00000   0.00000   0.00000   0.00000   0.00000   0.00000
                   0.00002   0.00002   0.00001   0.00000   0.00000   0.00269
                  --------  --------  --------  --------  --------  --------
  0 N                 0.0      -0.0      -0.0      -0.1      -0.0      -8.0
  1 C                -0.0       0.0      -0.1      -0.0      -0.0      -2.9
  2 C                -0.0      -0.0       0.0       0.0      -0.0      -0.1
  4 C                 0.9      -0.1       0.0      -0.1       0.0      -0.0
  5 C                -6.0      -5.9      -1.3      -2.5      -2.8      -0.1
  6 C               120.2     116.8     106.0     105.6     113.9      -0.0
  7 H                -0.0      -0.0      -0.0      -0.0      -0.0     113.3
  8 H                -0.0       0.0      -0.0      -0.0      -0.0      -1.5
  9 H                -0.0      -0.0      -0.0      -0.0      -0.0      -0.2
 11 H                -0.0      -0.0      -0.0      -0.0      -0.0      -0.2
 14 H                -7.6      -4.7      -1.8      -2.2      -3.8       0.0
 15 H                -7.4      -6.1      -2.9      -0.6      -7.2      -0.0

                    108       109       110       111       112       113   
                   0.00000   0.00000   0.00000   0.00000   0.00000   0.00000
                   0.00076   0.00037   0.00002   0.00381   0.00078   0.00034
                  --------  --------  --------  --------  --------  --------
  0 N                -3.5      -3.1      -5.1      -8.6      -3.5      -3.0
  1 C                -0.6      -0.2      -0.2      -3.4      -0.1      -0.4
  2 C                 0.0      -0.0      -0.0       0.2      -0.0      -0.1
  5 C                 0.0      -0.1       0.0       0.3      -0.2      -0.0
  6 C                 0.0      -0.0      -0.0      -0.6      -0.0      -0.0
  7 H               104.7     104.1     105.5      -1.6      -0.3      -0.4
  8 H                -0.4      -0.5      -0.2     116.0     104.2     104.0
  9 H                -0.1      -0.1      -0.0      -0.0      -0.0      -0.0
 10 H                -0.0      -0.0       0.0      -1.8       0.0      -0.0
 15 H                -0.0      -0.0      -0.0      -0.4       0.0      -0.0

                    114       115       116       117       118       119   
                   0.00000   0.00000   0.00000   0.00000   0.00000   0.00000
                   0.00003   0.00431   0.00013   0.00008   0.00004   0.00599
                  --------  --------  --------  --------  --------  --------
  0 N                -5.3       0.6      -0.3      -1.0      -0.4      -0.2
  1 C                -0.0     -36.3      -3.0      -3.9      -8.3       0.5
  2 C                 0.0       0.2      -0.3      -0.4       0.2     -35.1
  3 O                -0.0      -0.0      -0.0      -0.2      -0.0       0.1
  4 C                -0.0       0.2      -0.1       0.0      -0.1      -0.1
  5 C                -0.0      -0.3      -0.1      -0.5       0.2      -0.1
  6 C                -0.0       0.2      -0.0      -0.2       0.0       0.0
  7 H                -0.3      -0.3      -0.1      -0.0      -0.0      -0.0
  8 H               105.8      -0.0      -0.1      -0.0      -0.0      -1.8
  9 H                -0.0     136.7     104.1     106.2     108.4      -0.0
 10 H                -0.1      -0.0      -0.0      -0.0      -0.0     137.7
 11 H                -0.0      -0.8      -0.1      -0.0      -0.0      -0.7
 12 H                -0.0      -0.0      -0.0      -0.0       0.0      -0.4

                    120       121       122       123       124       125   
                   0.00000   0.00000   0.00000   0.00000   0.00000   0.00000
                   0.00015   0.00012   0.00002   0.00239   0.00013   0.00010
                  --------  --------  --------  --------  --------  --------
  0 N                -0.2      -0.0      -0.0      -0.1      -0.0      -0.0
  1 C                -0.2       0.1      -0.3       1.0       0.0      -0.3
  2 C                -2.8      -4.7      -6.2     -41.3      -4.0      -4.1
  3 O                -0.3      -0.2      -0.6       0.4      -0.2      -0.2
  5 C                -0.2      -0.1      -0.0      -0.5      -0.0      -0.0
  6 C                -0.0      -0.0      -0.0      -0.1      -0.0      -0.0
  7 H                -0.0      -0.0      -0.0      -0.2      -0.0      -0.0
  9 H                -0.0      -0.0      -0.0      -0.9      -0.0      -0.0
 10 H               104.1     105.7     107.2      -0.8      -0.6      -0.4
 11 H                -0.3      -0.7       0.1     142.6     105.0     105.2

                    126       127       128       129       130       131   
                   0.00000   0.00000   0.00000   0.00000   0.00000   0.00000
                   0.00003   0.00373   0.00019   0.00012   0.00002   0.00198
                  --------  --------  --------  --------  --------  --------
  1 C                -0.5       0.1      -0.0      -0.2       0.0       0.5
  2 C                -5.7       0.3      -0.0      -0.1      -0.3      -0.6
  3 O                -0.7       0.1      -0.3      -0.1      -0.6       0.3
  4 C                -0.1     -36.7      -2.9      -5.2      -6.5     -39.3
  5 C                 0.0       0.7      -0.3       0.2      -0.3      -0.5
  6 C                -0.0      -0.6      -0.1       0.0      -0.0      -0.0
 10 H                 0.0      -0.4      -0.0      -0.0      -0.0       0.0
 11 H               107.0       0.0      -0.0      -0.0      -0.0      -0.0
 12 H                -0.0     137.3     104.0     106.2     107.6      -0.6
 13 H                -0.0      -0.5      -0.4      -0.8      -0.0     140.4
 14 H                -0.0      -0.2      -0.0      -0.0      -0.0      -0.1

                    132       133       134       135       136       137   
                   0.00000   0.00000   0.00000   0.00000   0.00000   0.00000
                   0.00016   0.00011   0.00003   0.00177   0.00026   0.00010
                  --------  --------  --------  --------  --------  --------
  1 C                -0.0      -0.1       0.0       0.4      -0.0      -0.0
  3 O                -0.3      -0.2      -0.6      -0.0      -0.0      -0.0
  4 C                -3.1      -4.4      -6.4      -2.1      -0.0      -0.0
  5 C                -0.0      -0.1      -0.3       1.9      -0.0      -0.3
  6 C                -0.0      -0.0      -0.1     -44.1      -3.2      -3.2
 12 H                -0.6      -0.6       0.0      -0.2       0.0      -0.0
 13 H               104.0     105.5     107.4      -0.1      -0.0      -0.0
 14 H                -0.0      -0.0      -0.0     145.6     103.4     104.2
 15 H                -0.0      -0.0      -0.0      -1.2      -0.1      -0.6

                    138       139       140       141       142   
                   0.00000   0.00000   0.00000   0.00000   0.00000
                   0.00005   0.00335   0.00023   0.00011   0.00007
                  --------  --------  --------  --------  --------
  0 N                -0.0      -0.9      -0.0      -0.0      -0.0
  1 C                -0.0      -1.8      -0.0      -0.0      -0.0
  4 C                -0.1       0.4      -0.0      -0.0      -0.0
  5 C                -0.0       2.3      -0.0      -0.5      -0.2
  6 C                -8.4     -46.0      -3.2      -2.9      -8.2
  8 H                -0.0      -0.3      -0.0      -0.0      -0.0
 14 H               108.6      -1.3      -0.1      -0.6      -0.0
 15 H                -0.1     147.9     103.4     104.1     108.4

Storing NBOs: 6136.nbo
                                    *** NBOs were stored ***

                                *** returned from GENNBO program ***

-------
TIMINGS
-------

Total SCF time: 0 days 0 hours 0 min 5 sec 

Total time                  ....       5.678 sec
Sum of individual times     ....       6.189 sec  (109.0%)

Fock matrix formation       ....       3.681 sec  ( 64.8%)
  Coulomb formation         ....       1.935 sec  ( 52.6% of F)
  Split-RI-J                ....       1.928 sec  ( 52.4% of F)
  XC integration            ....       1.741 sec  ( 47.3% of F)
    Basis function eval.    ....       0.576 sec  ( 33.1% of XC)
    Density eval.           ....       0.322 sec  ( 18.5% of XC)
    XC-Functional eval.     ....       0.098 sec  (  5.6% of XC)
    XC-Potential eval.      ....       0.709 sec  ( 40.7% of XC)
Diagonalization             ....       0.027 sec  (  0.5%)
Density matrix formation    ....       0.003 sec  (  0.0%)
Population analysis         ....       1.370 sec  ( 24.1%)
Initial guess               ....       0.388 sec  (  6.8%)
Orbital Transformation      ....       0.000 sec  (  0.0%)
Orbital Orthonormalization  ....       0.000 sec  (  0.0%)
DIIS solution               ....       0.007 sec  (  0.1%)
SOSCF solution              ....       0.011 sec  (  0.2%)
Grid generation             ....       0.703 sec  ( 12.4%)
           ************************************************************
           *              Shut down parallel processing               *
           ************************************************************

-------------------------   --------------------
FINAL SINGLE POINT ENERGY      -325.231745938306
-------------------------   --------------------


                            ***************************************
                            *     ORCA property calculations      *
                            ***************************************

                                    ---------------------
                                    Active property flags
                                    ---------------------
   (+) Dipole Moment


------------------------------------------------------------------------------
                       ORCA ELECTRIC PROPERTIES CALCULATION
------------------------------------------------------------------------------

Dipole Moment Calculation                       ... on
Quadrupole Moment Calculation                   ... off
Polarizability Calculation                      ... off
GBWName                                         ... 6136.gbw
Electron density file                           ... 6136.scfp.tmp

-------------
DIPOLE MOMENT
-------------
                                X             Y             Z
Electronic contribution:      2.20409       1.03441      -0.00004
Nuclear contribution   :     -2.65148      -0.84351       0.08858
                        -----------------------------------------
Total Dipole Moment    :     -0.44739       0.19090       0.08854
                        -----------------------------------------
Magnitude (a.u.)       :      0.49440
Magnitude (Debye)      :      1.25667


Timings for individual modules:

Sum of individual times         ...        6.879 sec (=   0.115 min)
GTO integral calculation        ...        0.477 sec (=   0.008 min)   6.9 %
SCF iterations                  ...        6.402 sec (=   0.107 min)  93.1 %
                             ****ORCA TERMINATED NORMALLY****
TOTAL RUN TIME: 0 days 0 hours 0 minutes 7 seconds 279 msec
