
                                 *****************
                                 * O   R   C   A *
                                 *****************

           --- An Ab Initio, DFT and Semiempirical electronic structure package ---

                  #######################################################
                  #                        -***-                        #
                  #  Department of molecular theory and spectroscopy    #
                  #              Directorship: Frank Neese              #
                  # Max Planck Institute for Chemical Energy Conversion #
                  #                  D-45470 Muelheim/Ruhr              #
                  #                       Germany                       #
                  #                                                     #
                  #                  All rights reserved                #
                  #                        -***-                        #
                  #######################################################


                         Program Version 3.0.3 - RELEASE   -


 With contributions from (in alphabetic order):
   Ute Becker             : Parallelization
   Dmytro Bykov           : SCF Hessian
   Dmitry Ganyushin       : Spin-Orbit,Spin-Spin,Magnetic field MRCI
   Andreas Hansen         : Spin unrestricted coupled pair/coupled cluster methods
   Dimitrios Liakos       : Extrapolation schemes; parallel MDCI
   Robert Izsak           : Overlap fitted RIJCOSX, COSX-SCS-MP3
   Christian Kollmar      : KDIIS, OOCD, Brueckner-CCSD(T), CCSD density
   Simone Kossmann        : Meta GGA functionals, TD-DFT gradient, OOMP2, MP2 Hessian
   Taras Petrenko         : DFT Hessian,TD-DFT gradient, ASA and ECA modules, normal mode analysis, Resonance Raman, ABS, FL, XAS/XES, NRVS
   Christoph Reimann      : Effective Core Potentials
   Michael Roemelt        : Restricted open shell CIS
   Christoph Riplinger    : Improved optimizer, TS searches, QM/MM, DLPNO-CCSD
   Barbara Sandhoefer     : DKH picture change effects
   Igor Schapiro          : Molecular dynamics
   Kantharuban Sivalingam : CASSCF convergence, NEVPT2
   Boris Wezisla          : Elementary symmetry handling
   Frank Wennmohs         : Technical directorship


 We gratefully acknowledge several colleagues who have allowed us to
 interface, adapt or use parts of their codes:
   Stefan Grimme, W. Hujo, H. Kruse, T. Risthaus : VdW corrections, initial TS optimization,
                                                   DFT functionals, gCP
   Ed Valeev                                     : LibInt (2-el integral package), F12 methods
   Garnet Chan, S. Sharma, R. Olivares           : DMRG
   Ulf Ekstrom                                   : XCFun DFT Library
   Mihaly Kallay                                 : mrcc  (arbitrary order and MRCC methods)
   Andreas Klamt, Michael Diedenhofen            : otool_cosmo (COSMO solvation model)
   Frank Weinhold                                : gennbo (NPA and NBO analysis)
   Christopher J. Cramer and Donald G. Truhlar   : smd solvation model


 Your calculation uses the libint2 library for the computation of 2-el integrals
 For citations please refer to: http://libint.valeyev.net

 This ORCA versions uses:
   CBLAS   interface :  Fast vector & matrix operations
   LAPACKE interface :  Fast linear algebra routines
   SCALAPACK package :  Parallel linear algebra routines


Your calculation utilizes the basis: Ahlrichs-VDZ
Cite in your paper:
H - Kr: A. Schaefer, H. Horn and R. Ahlrichs, J. Chem. Phys. 97, 2571 (1992).

Your calculation utilizes the basis: Ahlrichs SVPalls1+f
Cite in your paper:
Rb - Xe: A. Schaefer, C. Huber and R. Ahlrichs, J. Chem. Phys. 100, 5829 (1994).

================================================================================
                                        WARNINGS
                       Please study these warnings very carefully!
================================================================================
Now building the actual basis set


INFO   : the flag for use of LIBINT has been found!

================================================================================
                                       INPUT FILE
================================================================================
NAME = 6354.inp
|  1> ! RI PBE def2-SVP def2-SVP/J NBO PAL2
|  2> % maxcore 2000
|  3> % output
|  4>     # printlevel mini
|  5>     print[ P_Basis ] 0
|  6>     print[ P_SCFInfo ] 1
|  7>     print[ P_SCFIterInfo ] 1
|  8>     print[ P_OrbEn ] 0
|  9>     print[ P_Cartesian ] 0
| 10> end
| 11> *xyz 0 1
| 12>  N        0.8734090000     1.9996630000     0.4819750000 
| 13>  C        2.0954460000     1.7990210000     0.1994520000 
| 14>  N        3.0152000000     1.4841660000     1.1485800000 
| 15>  C        4.3931890000     1.2475100000     0.9031350000 
| 16>  C        5.4575250000     1.9756280000     1.7407910000 
| 17>  O        6.1710080000     0.7506730000     1.9439650000 
| 18>  C        5.0649170000    -0.0190410000     1.4593080000 
| 19>  H        0.3453440000     2.2215130000    -0.3541430000 
| 20>  H        2.5285150000     1.8557330000    -0.8068190000 
| 21>  H        2.6645680000     1.4199490000     2.0924280000 
| 22>  H        4.5754750000     1.3625180000    -0.1663250000 
| 23>  H        5.0591850000     2.3785500000     2.6813070000 
| 24>  H        6.0663960000     2.7375830000     1.2473230000 
| 25>  H        4.4965730000    -0.4800170000     2.2778900000 
| 26>  H        5.3717690000    -0.7913480000     0.7492350000 
| 27> *
| 28> 
| 29>                          ****END OF INPUT****
================================================================================

                       ****************************
                       * Single Point Calculation *
                       ****************************

--------------------------------
INTERNAL COORDINATES (ANGSTROEM)
--------------------------------
 N      0   0   0   0.000000     0.000     0.000
 C      1   0   0   1.270217     0.000     0.000
 N      2   1   0   1.358648   122.175     0.000
 C      3   2   1   1.419543   125.099   179.995
 C      4   3   2   1.537737   119.918   129.660
 O      5   4   3   1.432080    90.980   133.194
 C      6   5   4   1.432058    91.543   347.010
 H      1   2   3   1.013491   110.631   179.999
 H      2   1   3   1.096971   125.147   180.001
 H      3   2   1   1.008918   115.659     0.000
 H      4   3   2   1.090963   108.308     0.000
 H      5   4   3   1.097994   112.908    18.842
 H      5   4   3   1.093074   118.014   249.473
 H      7   6   5   1.097994   111.910   257.739
 H      7   6   5   1.093078   112.506   134.020

---------------------------
INTERNAL COORDINATES (A.U.)
---------------------------
 N      0   0   0   0.000000     0.000     0.000
 C      1   0   0   2.400362     0.000     0.000
 N      2   1   0   2.567473   122.175     0.000
 C      3   2   1   2.682548   125.099   179.995
 C      4   3   2   2.905901   119.918   129.660
 O      5   4   3   2.706239    90.980   133.194
 C      6   5   4   2.706197    91.543   347.010
 H      1   2   3   1.915220   110.631   179.999
 H      2   1   3   2.072976   125.147   180.001
 H      3   2   1   1.906579   115.659     0.000
 H      4   3   2   2.061621   108.308     0.000
 H      5   4   3   2.074908   112.908    18.842
 H      5   4   3   2.065610   118.014   249.473
 H      7   6   5   2.074907   111.910   257.739
 H      7   6   5   2.065618   112.506   134.020



           ************************************************************
           *        Program running with 2 parallel MPI-processes     *
           *              working on a common directory               *
           ************************************************************
------------------------------------------------------------------------------
                           ORCA GTO INTEGRAL CALCULATION
                           -- RI-GTO INTEGRALS CHOSEN --
------------------------------------------------------------------------------

                         BASIS SET STATISTICS AND STARTUP INFO

Gaussian basis set:
 # of primitive gaussian shells          ...  124
 # of primitive gaussian functions       ...  224
 # of contracted shells                  ...   66
 # of contracted basis functions         ...  138
 Highest angular momentum                ...    2
 Maximum contraction depth               ...    5
Auxiliary gaussian basis set:
 # of primitive gaussian shells          ...  232
 # of primitive gaussian functions       ...  618
 # of contracted shells                  ...  145
 # of contracted aux-basis functions     ...  431
 Highest angular momentum                ...    4
 Maximum contraction depth               ...    7
Ratio of auxiliary to basis functions    ...  3.12
Integral package used                  ... LIBINT
 One Electron integrals                  ... done
 Ordering auxiliary basis shells         ... done
 Integral threshhold             Thresh  ...  1.000e-10
 Primitive cut-off               TCut    ...  1.000e-11
 Pre-screening matrix                    ... done
 Shell pair data                         ... 
 Ordering of the shell pairs             ... done (   0.000 sec) 2078 of 2211 pairs
 Determination of significant pairs      ... done (   0.000 sec)
 Creation of shell pair data             ... done (   0.000 sec)
 Storage of shell pair data              ... done (   0.000 sec)
 Shell pair data done in (   0.001 sec)
 Computing two index integrals           ... done
 Cholesky decomposition of the V-matrix  ... done


Timings:
 Total evaluation time                   ...   0.157 sec (  0.003 min)
 One electron matrix time                ...   0.017 sec (  0.000 min) = 11.0%
 Schwartz matrix evaluation time         ...   0.073 sec (  0.001 min) = 46.7%
 Two index repulsion integral time       ...   0.004 sec (  0.000 min) =  2.3%
 Cholesky decomposition of V             ...   0.003 sec (  0.000 min) =  2.0%
 Three index repulsion integral time     ...   0.000 sec (  0.000 min) =  0.0%

           ************************************************************
           *              Shut down parallel processing               *
           ************************************************************


           ************************************************************
           *        Program running with 2 parallel MPI-processes     *
           *              working on a common directory               *
           ************************************************************
-------------------------------------------------------------------------------
                                 ORCA SCF
-------------------------------------------------------------------------------

------------
SCF SETTINGS
------------
Hamiltonian:
 Density Functional     Method          .... DFT(GTOs)
 Exchange Functional    Exchange        .... PBE
   PBE kappa parameter  XKappa          ....  0.804000
 Correlation Functional Correlation     .... PBE
 LDA part of GGA corr.  LDAOpt          .... PW91-LDA
 Gradients option       PostSCFGGA      .... off
   NL short-range parameter             ....  6.400000
 RI-approximation to the Coulomb term is turned on
   Number of auxiliary basis functions  .... 431


General Settings:
 Integral files         IntName         .... 6354
 Hartree-Fock type      HFTyp           .... RHF
 Total Charge           Charge          ....    0
 Multiplicity           Mult            ....    1
 Number of Electrons    NEL             ....   54
 Basis Dimension        Dim             ....  138
 Nuclear Repulsion      ENuc            ....    300.7273690696 Eh

Convergence Acceleration:
 DIIS                   CNVDIIS         .... on
   Start iteration      DIISMaxIt       ....    12
   Startup error        DIISStart       ....  0.200000
   # of expansion vecs  DIISMaxEq       ....     5
   Bias factor          DIISBfac        ....   1.050
   Max. coefficient     DIISMaxC        ....  10.000
 Newton-Raphson         CNVNR           .... off
 SOSCF                  CNVSOSCF        .... on
   Start iteration      SOSCFMaxIt      ....   150
   Startup grad/error   SOSCFStart      ....  0.003300
 Level Shifting         CNVShift        .... on
   Level shift para.    LevelShift      ....    0.2500
   Turn off err/grad.   ShiftErr        ....    0.0010
 Zerner damping         CNVZerner       .... off
 Static damping         CNVDamp         .... on
   Fraction old density DampFac         ....    0.7000
   Max. Damping (<1)    DampMax         ....    0.9800
   Min. Damping (>=0)   DampMin         ....    0.0000
   Turn off err/grad.   DampErr         ....    0.1000
 Fernandez-Rico         CNVRico         .... off

SCF Procedure:
 Maximum # iterations   MaxIter         ....   125
 SCF integral mode      SCFMode         .... Direct
   Integral package                     .... LIBINT
 Reset frequeny         DirectResetFreq ....    20
 Integral Threshold     Thresh          ....  1.000e-10 Eh
 Primitive CutOff       TCut            ....  1.000e-11 Eh

Convergence Tolerance:
 Convergence Check Mode ConvCheckMode   .... Total+1el-Energy
 Energy Change          TolE            ....  1.000e-06 Eh
 1-El. energy change                    ....  1.000e-03 Eh
 Orbital Gradient       TolG            ....  5.000e-05
 Orbital Rotation angle TolX            ....  5.000e-05
 DIIS Error             TolErr          ....  1.000e-06


Diagonalization of the overlap matrix:
Smallest eigenvalue                        ... 1.352e-03
Time for diagonalization                   ...    0.012 sec
Threshold for overlap eigenvalues          ... 1.000e-08
Number of eigenvalues below threshold      ... 0
Time for construction of square roots      ...    0.002 sec
Total time needed                          ...    0.014 sec

-------------------
DFT GRID GENERATION
-------------------

General Integration Accuracy     IntAcc      ...  4.340
Radial Grid Type                 RadialGrid  ... Gauss-Chebyshev
Angular Grid (max. acc.)         AngularGrid ... Lebedev-110
Angular grid pruning method      GridPruning ... 3 (G Style)
Weight generation scheme         WeightScheme... Becke
Basis function cutoff            BFCut       ...    1.0000e-10
Integration weight cutoff        WCut        ...    1.0000e-14
Grids for H and He will be reduced by one unit

# of grid points (after initial pruning)     ...  18096 (   0.0 sec)
# of grid points (after weights+screening)   ...  16900 (   0.1 sec)
nearest neighbour list constructed           ...    0.0 sec
Grid point re-assignment to atoms done       ...    0.0 sec
Grid point division into batches done        ...    0.0 sec
Reduced shell lists constructed in    0.1 sec

Total number of grid points                  ...    16900
Total number of batches                      ...      271
Average number of points per batch           ...       62
Average number of grid points per atom       ...     1127
Average number of shells per batch           ...    48.69 (73.77%)
Average number of basis functions per batch  ...    99.75 (72.28%)
Average number of large shells per batch     ...    39.27 (80.66%)
Average number of large basis fcns per batch ...    80.07 (80.27%)
Maximum spatial batch extension              ...  14.79, 22.92, 18.24 au
Average spatial batch extension              ...   1.39,  1.65,  1.52 au

Time for grid setup =    0.137 sec

------------------------------
INITIAL GUESS: MODEL POTENTIAL
------------------------------
Loading Hartree-Fock densities                     ... done
Calculating cut-offs                               ... done
Setting up the integral package                    ... done
Initializing the effective Hamiltonian             ... done
Starting the Coulomb interaction                   ... done (   0.0 sec)
Reading the grid                                   ... done
Mapping shells                                     ... done
Starting the XC term evaluation                    ... done (   0.1 sec)
  promolecular density results
     # of electrons  =     53.999462225
     EX              =    -44.063370316
     EC              =     -1.797354256
     EX+EC           =    -45.860724572
Transforming the Hamiltonian                       ... done (   0.0 sec)
Diagonalizing the Hamiltonian                      ... done (   0.0 sec)
Back transforming the eigenvectors                 ... done (   0.0 sec)
Now organizing SCF variables                       ... done
                      ------------------
                      INITIAL GUESS DONE (   0.4 sec)
                      ------------------
--------------
SCF ITERATIONS
--------------
ITER       Energy         Delta-E        Max-DP      RMS-DP      [F,P]     Damp
               ***  Starting incremental Fock matrix formation  ***
  0   -341.0571801049   0.000000000000 0.10778657  0.00338183  0.2657885 0.7000
  1   -341.1539928822  -0.096812777346 0.06470899  0.00221682  0.0940835 0.7000
                               ***Turning on DIIS***
  2   -341.1828312765  -0.028838394326 0.05666722  0.00304138  0.0287076 0.0000
  3   -341.2349376517  -0.052106375171 0.05212522  0.00168363  0.0563749 0.0000
  4   -341.2455599314  -0.010622279671 0.01752865  0.00050643  0.0242824 0.0000
                      *** Initiating the SOSCF procedure ***
                           *** Shutting down DIIS ***
                      *** Re-Reading the Fockian *** 
                      *** Removing any level shift *** 
ITER      Energy       Delta-E        Grad      Rot      Max-DP    RMS-DP
  5   -341.24728024  -0.0017203051  0.000676  0.000676  0.003431  0.000148
               *** Restarting incremental Fock matrix formation ***
  6   -341.24732879  -0.0000485549  0.000873  0.004435  0.004356  0.000141
  7   -341.24727855   0.0000502429  0.003015  0.004022  0.003702  0.000092
  8   -341.24733977  -0.0000612249  0.000203  0.000670  0.000992  0.000032
  9   -341.24733705   0.0000027252  0.000509  0.000347  0.000719  0.000021
 10   -341.24734057  -0.0000035184  0.000014  0.000033  0.000099  0.000004
                 **** Energy Check signals convergence ****
              ***Rediagonalizing the Fockian in SOSCF/NRSCF***

               *****************************************************
               *                     SUCCESS                       *
               *           SCF CONVERGED AFTER  11 CYCLES          *
               *****************************************************

Setting up the final grid:

General Integration Accuracy     IntAcc      ...  4.670
Radial Grid Type                 RadialGrid  ... Gauss-Chebyshev
Angular Grid (max. acc.)         AngularGrid ... Lebedev-302
Angular grid pruning method      GridPruning ... 3 (G Style)
Weight generation scheme         WeightScheme... Becke
Basis function cutoff            BFCut       ...    1.0000e-10
Integration weight cutoff        WCut        ...    1.0000e-14
Grids for H and He will be reduced by one unit

# of grid points (after initial pruning)     ...  70636 (   0.0 sec)
# of grid points (after weights+screening)   ...  65119 (   0.1 sec)
nearest neighbour list constructed           ...    0.0 sec
Grid point re-assignment to atoms done       ...    0.0 sec
Grid point division into batches done        ...    0.2 sec
Reduced shell lists constructed in    0.4 sec

Total number of grid points                  ...    65119
Total number of batches                      ...     1024
Average number of points per batch           ...       63
Average number of grid points per atom       ...     4341
Average number of shells per batch           ...    45.17 (68.44%)
Average number of basis functions per batch  ...    91.81 (66.53%)
Average number of large shells per batch     ...    35.84 (79.35%)
Average number of large basis fcns per batch ...    72.89 (79.40%)
Maximum spatial batch extension              ...  17.86, 21.16, 20.05 au
Average spatial batch extension              ...   0.95,  1.05,  1.02 au

Final grid set up in    0.5 sec
Final integration                            ... done (   0.4 sec)
Change in XC energy                          ...     0.000293616
Integrated number of electrons               ...    53.999908696
Previous integrated no of electrons          ...    54.002732893

----------------
TOTAL SCF ENERGY
----------------

Total Energy       :         -341.24704694 Eh           -9285.80423 eV

Components:
Nuclear Repulsion  :          300.72736907 Eh            8183.20774 eV
Electronic Energy  :         -641.97441601 Eh          -17469.01197 eV

One Electron Energy:        -1058.61817411 Eh          -28806.46501 eV
Two Electron Energy:          416.64375811 Eh           11337.45304 eV

Virial components:
Potential Energy   :         -679.59943029 Eh          -18492.84066 eV
Kinetic Energy     :          338.35238335 Eh            9207.03643 eV
Virial Ratio       :            2.00855517


DFT components:
N(Alpha)           :       26.999954347811 electrons
N(Beta)            :       26.999954347811 electrons
N(Total)           :       53.999908695622 electrons
E(X)               :      -44.886133608195 Eh       
E(C)               :       -1.813046056217 Eh       
E(XC)              :      -46.699179664412 Eh       

---------------
SCF CONVERGENCE
---------------

  Last Energy change         ...    1.4628e-08  Tolerance :   1.0000e-06
  Last MAX-Density change    ...    5.8002e-05  Tolerance :   1.0000e-05
  Last RMS-Density change    ...    1.5181e-06  Tolerance :   1.0000e-06
  Last Orbital Gradient      ...    1.9440e-05  Tolerance :   5.0000e-05
  Last Orbital Rotation      ...    2.1085e-05  Tolerance :   5.0000e-05

             **** THE GBW FILE WAS UPDATED (6354.gbw) ****
             **** DENSITY FILE WAS UPDATED (6354.scfp.tmp) ****
             **** ENERGY FILE WAS UPDATED (6354.en.tmp) ****

                    ********************************
                    * MULLIKEN POPULATION ANALYSIS *
                    ********************************

-----------------------
MULLIKEN ATOMIC CHARGES
-----------------------
   0 N :   -0.165261
   1 C :   -0.027949
   2 N :   -0.057481
   3 C :   -0.166536
   4 C :    0.262204
   5 O :   -0.359947
   6 C :    0.257837
   7 H :    0.094823
   8 H :   -0.010541
   9 H :    0.106665
  10 H :    0.029217
  11 H :   -0.004282
  12 H :    0.021552
  13 H :   -0.004420
  14 H :    0.024119
Sum of atomic charges:    0.0000000

--------------------------------
MULLIKEN REDUCED ORBITAL CHARGES
--------------------------------
  0 N s       :     3.528288  s :     3.528288
      pz      :     1.323779  p :     3.614504
      px      :     1.052581
      py      :     1.238145
      dz2     :     0.004987  d :     0.022469
      dxz     :     0.006881
      dyz     :     0.002082
      dx2y2   :     0.004027
      dxy     :     0.004492
  1 C s       :     3.123261  s :     3.123261
      pz      :     0.962328  p :     2.827633
      px      :     0.908459
      py      :     0.956846
      dz2     :     0.011029  d :     0.077054
      dxz     :     0.030357
      dyz     :     0.005149
      dx2y2   :     0.011378
      dxy     :     0.019142
  2 N s       :     3.317371  s :     3.317371
      pz      :     1.062410  p :     3.720204
      px      :     1.048839
      py      :     1.608955
      dz2     :     0.004858  d :     0.019907
      dxz     :     0.006327
      dyz     :     0.001443
      dx2y2   :     0.003485
      dxy     :     0.003794
  3 C s       :     3.156353  s :     3.156353
      pz      :     1.096402  p :     2.953912
      px      :     0.863258
      py      :     0.994252
      dz2     :     0.010302  d :     0.056270
      dxz     :     0.009299
      dyz     :     0.005695
      dx2y2   :     0.013638
      dxy     :     0.017337
  4 C s       :     2.988135  s :     2.988135
      pz      :     0.983873  p :     2.690353
      px      :     0.871685
      py      :     0.834795
      dz2     :     0.007658  d :     0.059308
      dxz     :     0.008133
      dyz     :     0.013621
      dx2y2   :     0.011105
      dxy     :     0.018792
  5 O s       :     3.809038  s :     3.809038
      pz      :     1.808875  p :     4.533653
      px      :     1.515379
      py      :     1.209399
      dz2     :     0.002189  d :     0.017256
      dxz     :     0.003230
      dyz     :     0.002160
      dx2y2   :     0.003578
      dxy     :     0.006098
  6 C s       :     2.987246  s :     2.987246
      pz      :     0.965809  p :     2.695566
      px      :     0.791595
      py      :     0.938162
      dz2     :     0.006630  d :     0.059351
      dxz     :     0.011873
      dyz     :     0.012830
      dx2y2   :     0.012572
      dxy     :     0.015446
  7 H s       :     0.858443  s :     0.858443
      pz      :     0.018828  p :     0.046734
      px      :     0.015915
      py      :     0.011990
  8 H s       :     0.990672  s :     0.990672
      pz      :     0.012395  p :     0.019869
      px      :     0.003659
      py      :     0.003815
  9 H s       :     0.849196  s :     0.849196
      pz      :     0.022201  p :     0.044138
      px      :     0.009788
      py      :     0.012149
 10 H s       :     0.949487  s :     0.949487
      pz      :     0.013447  p :     0.021295
      px      :     0.003246
      py      :     0.004602
 11 H s       :     0.982689  s :     0.982689
      pz      :     0.011327  p :     0.021593
      px      :     0.005444
      py      :     0.004821
 12 H s       :     0.956336  s :     0.956336
      pz      :     0.006826  p :     0.022112
      px      :     0.006889
      py      :     0.008397
 13 H s       :     0.982864  s :     0.982864
      pz      :     0.009462  p :     0.021556
      px      :     0.006258
      py      :     0.005836
 14 H s       :     0.953836  s :     0.953836
      pz      :     0.008828  p :     0.022044
      px      :     0.004119
      py      :     0.009097


                     *******************************
                     * LOEWDIN POPULATION ANALYSIS *
                     *******************************

----------------------
LOEWDIN ATOMIC CHARGES
----------------------
   0 N :   -0.186210
   1 C :    0.018784
   2 N :    0.009977
   3 C :   -0.005728
   4 C :    0.077038
   5 O :   -0.180064
   6 C :    0.076075
   7 H :    0.050395
   8 H :   -0.006529
   9 H :    0.072356
  10 H :    0.031837
  11 H :    0.007053
  12 H :    0.013691
  13 H :    0.007162
  14 H :    0.014163

-------------------------------
LOEWDIN REDUCED ORBITAL CHARGES
-------------------------------
  0 N s       :     3.253485  s :     3.253485
      pz      :     1.439687  p :     3.885431
      px      :     1.210650
      py      :     1.235093
      dz2     :     0.009640  d :     0.047294
      dxz     :     0.015654
      dyz     :     0.002491
      dx2y2   :     0.011385
      dxy     :     0.008124
  1 C s       :     2.854867  s :     2.854867
      pz      :     0.999622  p :     2.939861
      px      :     1.005282
      py      :     0.934957
      dz2     :     0.026780  d :     0.186487
      dxz     :     0.079566
      dyz     :     0.010825
      dx2y2   :     0.028133
      dxy     :     0.041182
  2 N s       :     3.045463  s :     3.045463
      pz      :     1.174810  p :     3.890014
      px      :     1.159093
      py      :     1.556111
      dz2     :     0.015381  d :     0.054545
      dxz     :     0.019160
      dyz     :     0.003383
      dx2y2   :     0.008493
      dxy     :     0.008127
  3 C s       :     2.839659  s :     2.839659
      pz      :     1.066039  p :     3.026227
      px      :     0.919056
      py      :     1.041132
      dz2     :     0.028259  d :     0.139841
      dxz     :     0.019998
      dyz     :     0.013571
      dx2y2   :     0.034437
      dxy     :     0.043576
  4 C s       :     2.867575  s :     2.867575
      pz      :     1.053373  p :     2.918323
      px      :     0.964267
      py      :     0.900683
      dz2     :     0.016458  d :     0.137064
      dxz     :     0.021484
      dyz     :     0.032447
      dx2y2   :     0.021297
      dxy     :     0.045378
  5 O s       :     3.516381  s :     3.516381
      pz      :     1.806696  p :     4.634081
      px      :     1.559336
      py      :     1.268049
      dz2     :     0.003337  d :     0.029603
      dxz     :     0.004552
      dyz     :     0.003876
      dx2y2   :     0.005899
      dxy     :     0.011939
  6 C s       :     2.867604  s :     2.867604
      pz      :     1.036988  p :     2.919295
      px      :     0.891440
      py      :     0.990867
      dz2     :     0.012683  d :     0.137026
      dxz     :     0.027371
      dyz     :     0.033748
      dx2y2   :     0.024865
      dxy     :     0.038358
  7 H s       :     0.823071  s :     0.823071
      pz      :     0.060267  p :     0.126534
      px      :     0.035542
      py      :     0.030726
  8 H s       :     0.938094  s :     0.938094
      pz      :     0.038623  p :     0.068435
      px      :     0.017716
      py      :     0.012096
  9 H s       :     0.802312  s :     0.802312
      pz      :     0.063119  p :     0.125332
      px      :     0.024228
      py      :     0.037985
 10 H s       :     0.899452  s :     0.899452
      pz      :     0.042410  p :     0.068711
      px      :     0.011541
      py      :     0.014760
 11 H s       :     0.924691  s :     0.924691
      pz      :     0.035765  p :     0.068256
      px      :     0.016279
      py      :     0.016212
 12 H s       :     0.918446  s :     0.918446
      pz      :     0.019621  p :     0.067863
      px      :     0.021194
      py      :     0.027048
 13 H s       :     0.924544  s :     0.924544
      pz      :     0.029251  p :     0.068294
      px      :     0.019595
      py      :     0.019448
 14 H s       :     0.917911  s :     0.917911
      pz      :     0.026153  p :     0.067926
      px      :     0.012357
      py      :     0.029415


                      *****************************
                      * MAYER POPULATION ANALYSIS *
                      *****************************

  NA   - Mulliken gross atomic population
  ZA   - Total nuclear charge
  QA   - Mulliken gross atomic charge
  VA   - Mayer's total valence
  BVA  - Mayer's bonded valence
  FA   - Mayer's free valence

  ATOM       NA         ZA         QA         VA         BVA        FA
  0 N      7.1653     7.0000    -0.1653     3.0314     3.0314    -0.0000
  1 C      6.0279     6.0000    -0.0279     4.1329     4.1329    -0.0000
  2 N      7.0575     7.0000    -0.0575     3.2382     3.2382    -0.0000
  3 C      6.1665     6.0000    -0.1665     4.2493     4.2493     0.0000
  4 C      5.7378     6.0000     0.2622     3.8869     3.8869     0.0000
  5 O      8.3599     8.0000    -0.3599     2.1596     2.1596     0.0000
  6 C      5.7422     6.0000     0.2578     3.8850     3.8850    -0.0000
  7 H      0.9052     1.0000     0.0948     1.0002     1.0002    -0.0000
  8 H      1.0105     1.0000    -0.0105     0.9901     0.9901    -0.0000
  9 H      0.8933     1.0000     0.1067     1.0323     1.0323    -0.0000
 10 H      0.9708     1.0000     0.0292     0.9851     0.9851     0.0000
 11 H      1.0043     1.0000    -0.0043     0.9885     0.9885     0.0000
 12 H      0.9784     1.0000     0.0216     0.9742     0.9742     0.0000
 13 H      1.0044     1.0000    -0.0044     0.9894     0.9894    -0.0000
 14 H      0.9759     1.0000     0.0241     0.9734     0.9734    -0.0000

  Mayer bond orders larger than 0.1
B(  0-N ,  1-C ) :   1.9132 B(  0-N ,  7-H ) :   0.9361 B(  1-C ,  2-N ) :   1.1797 
B(  1-C ,  8-H ) :   0.9319 B(  2-N ,  3-C ) :   1.0604 B(  2-N ,  9-H ) :   0.9141 
B(  3-C ,  4-C ) :   1.0621 B(  3-C ,  6-C ) :   1.0639 B(  3-C , 10-H ) :   0.8977 
B(  4-C ,  5-O ) :   1.0343 B(  4-C , 11-H ) :   0.9144 B(  4-C , 12-H ) :   0.9401 
B(  5-O ,  6-C ) :   1.0337 B(  6-C , 13-H ) :   0.9136 B(  6-C , 14-H ) :   0.9386 



 *********************************** NBO 6.0 ***********************************
             N A T U R A L   A T O M I C   O R B I T A L   A N D
          N A T U R A L   B O N D   O R B I T A L   A N A L Y S I S
 ***************************** Kiya KiyaLu (100703) ****************************
  (c) Copyright 1996-2015 Board of Regents of the University of Wisconsin System
      on behalf of the Theoretical Chemistry Institute.  All rights reserved.

          Cite this program as:

          NBO 6.0.  E. D. Glendening, J. K. Badenhoop, A. E. Reed,
          J. E. Carpenter, J. A. Bohmann, C. M. Morales, C. R. Landis,
          and F. Weinhold (Theoretical Chemistry Institute, University
          of Wisconsin, Madison, WI, 2013); http://nbo6.chem.wisc.edu/

       /NPA    / : Natural Population Analysis
       /NBO    / : Natural Bond Orbital Analysis
       /AONBO  / : Write the AO to NBO transformation to lfn77
       /FILE   / : Set to 6354

 Filename set to 6354

 Job title:  *** NBO job generated by orca_scf

 Warning: MOs are non-orthogonal; program will continue

 Warning: -1690.47091 electrons reside outside the linearly independent MO space


 NATURAL POPULATIONS:  Natural atomic orbital occupancies

  NAO Atom No lang   Type(AO)    Occupancy      Energy
 -------------------------------------------------------
   1    N  1  s      Cor( 1s)     1.99934     -13.77843
   2    N  1  s      Val( 2s)     1.47139      -0.46229
   3    N  1  s      Ryd( 3s)     0.00376       1.03953
   4    N  1  px     Val( 2p)     1.33685      -0.13807
   5    N  1  px     Ryd( 3p)     0.00280       0.85092
   6    N  1  py     Val( 2p)     1.30470      -0.14266
   7    N  1  py     Ryd( 3p)     0.00111       0.78569
   8    N  1  pz     Val( 2p)     1.59018      -0.13125
   9    N  1  pz     Ryd( 3p)     0.00374       0.94115
  10    N  1  dxy    Ryd( 3d)     0.00109       2.35395
  11    N  1  dxz    Ryd( 3d)     0.00179       2.61374
  12    N  1  dyz    Ryd( 3d)     0.00115       2.24727
  13    N  1  dx2y2  Ryd( 3d)     0.00114       2.61767
  14    N  1  dz2    Ryd( 3d)     0.00204       2.51769

  15    C  2  s      Cor( 1s)     1.99925      -9.83679
  16    C  2  s      Val( 2s)     0.86089      -0.12942
  17    C  2  s      Ryd( 3s)     0.00741       0.38407
  18    C  2  px     Val( 2p)     0.89105      -0.00863
  19    C  2  px     Ryd( 3p)     0.00560       0.57065
  20    C  2  py     Val( 2p)     0.91977      -0.11737
  21    C  2  py     Ryd( 3p)     0.00180       0.46506
  22    C  2  pz     Val( 2p)     1.02628      -0.03675
  23    C  2  pz     Ryd( 3p)     0.00441       0.63011
  24    C  2  dxy    Ryd( 3d)     0.00215       1.97118
  25    C  2  dxz    Ryd( 3d)     0.00262       2.41327
  26    C  2  dyz    Ryd( 3d)     0.00056       1.86389
  27    C  2  dx2y2  Ryd( 3d)     0.00115       2.18411
  28    C  2  dz2    Ryd( 3d)     0.00080       2.29884

  29    N  3  s      Cor( 1s)     1.99912     -13.86590
  30    N  3  s      Val( 2s)     1.22707      -0.46518
  31    N  3  s      Ryd( 3s)     0.00178       0.99376
  32    N  3  px     Val( 2p)     1.32710      -0.22694
  33    N  3  px     Ryd( 3p)     0.00266       1.16129
  34    N  3  py     Val( 2p)     1.68139      -0.21622
  35    N  3  py     Ryd( 3p)     0.00421       0.83043
  36    N  3  pz     Val( 2p)     1.39448      -0.22326
  37    N  3  pz     Ryd( 3p)     0.00279       1.20464
  38    N  3  dxy    Ryd( 3d)     0.00042       2.28991
  39    N  3  dxz    Ryd( 3d)     0.00074       2.73435
  40    N  3  dyz    Ryd( 3d)     0.00020       2.27598
  41    N  3  dx2y2  Ryd( 3d)     0.00062       2.50578
  42    N  3  dz2    Ryd( 3d)     0.00060       2.69834

  43    C  4  s      Cor( 1s)     1.99899      -9.83175
  44    C  4  s      Val( 2s)     0.93388      -0.19452
  45    C  4  s      Ryd( 3s)     0.00194       0.82455
  46    C  4  px     Val( 2p)     0.88266      -0.07680
  47    C  4  px     Ryd( 3p)     0.00384       0.60777
  48    C  4  py     Val( 2p)     1.06388      -0.11574
  49    C  4  py     Ryd( 3p)     0.00164       0.54394
  50    C  4  pz     Val( 2p)     1.19225      -0.09883
  51    C  4  pz     Ryd( 3p)     0.00545       0.81278
  52    C  4  dxy    Ryd( 3d)     0.00160       2.04045
  53    C  4  dxz    Ryd( 3d)     0.00087       2.15868
  54    C  4  dyz    Ryd( 3d)     0.00053       2.01343
  55    C  4  dx2y2  Ryd( 3d)     0.00134       2.09014
  56    C  4  dz2    Ryd( 3d)     0.00080       2.36404

  57    C  5  s      Cor( 1s)     1.99915      -9.84203
  58    C  5  s      Val( 2s)     1.03065      -0.22663
  59    C  5  s      Ryd( 3s)     0.00228       0.69851
  60    C  5  px     Val( 2p)     0.97652      -0.08977
  61    C  5  px     Ryd( 3p)     0.00413       0.54565
  62    C  5  py     Val( 2p)     0.90291      -0.07326
  63    C  5  py     Ryd( 3p)     0.00514       0.48990
  64    C  5  pz     Val( 2p)     1.14056      -0.08490
  65    C  5  pz     Ryd( 3p)     0.00162       0.61064
  66    C  5  dxy    Ryd( 3d)     0.00187       2.22590
  67    C  5  dxz    Ryd( 3d)     0.00095       2.14177
  68    C  5  dyz    Ryd( 3d)     0.00151       2.16162
  69    C  5  dx2y2  Ryd( 3d)     0.00144       1.96877
  70    C  5  dz2    Ryd( 3d)     0.00086       2.09889

  71    O  6  s      Cor( 1s)     1.99978     -18.56374
  72    O  6  s      Val( 2s)     1.65696      -0.78695
  73    O  6  s      Ryd( 3s)     0.00011       1.58337
  74    O  6  px     Val( 2p)     1.67114      -0.26882
  75    O  6  px     Ryd( 3p)     0.00148       1.10048
  76    O  6  py     Val( 2p)     1.36691      -0.25068
  77    O  6  py     Ryd( 3p)     0.00170       1.24756
  78    O  6  pz     Val( 2p)     1.87355      -0.23736
  79    O  6  pz     Ryd( 3p)     0.00188       1.11472
  80    O  6  dxy    Ryd( 3d)     0.00155       2.96139
  81    O  6  dxz    Ryd( 3d)     0.00154       2.74781
  82    O  6  dyz    Ryd( 3d)     0.00040       2.68896
  83    O  6  dx2y2  Ryd( 3d)     0.00129       2.74951
  84    O  6  dz2    Ryd( 3d)     0.00100       2.75378

  85    C  7  s      Cor( 1s)     1.99915      -9.84230
  86    C  7  s      Val( 2s)     1.03070      -0.22672
  87    C  7  s      Ryd( 3s)     0.00237       0.69861
  88    C  7  px     Val( 2p)     0.85515      -0.08832
  89    C  7  px     Ryd( 3p)     0.00446       0.53027
  90    C  7  py     Val( 2p)     1.04823      -0.07560
  91    C  7  py     Ryd( 3p)     0.00423       0.47346
  92    C  7  pz     Val( 2p)     1.11820      -0.08491
  93    C  7  pz     Ryd( 3p)     0.00222       0.63883
  94    C  7  dxy    Ryd( 3d)     0.00153       2.16323
  95    C  7  dxz    Ryd( 3d)     0.00141       2.12168
  96    C  7  dyz    Ryd( 3d)     0.00121       2.28493
  97    C  7  dx2y2  Ryd( 3d)     0.00158       2.01264
  98    C  7  dz2    Ryd( 3d)     0.00093       2.00490

  99    H  8  s      Val( 1s)     0.65061       0.08587
 100    H  8  s      Ryd( 2s)     0.00153       0.38321
 101    H  8  px     Ryd( 2p)     0.00094       1.95914
 102    H  8  py     Ryd( 2p)     0.00078       1.67792
 103    H  8  pz     Ryd( 2p)     0.00103       2.21802

 104    H  9  s      Val( 1s)     0.84291       0.02273
 105    H  9  s      Ryd( 2s)     0.00409       0.33562
 106    H  9  px     Ryd( 2p)     0.00014       1.89594
 107    H  9  py     Ryd( 2p)     0.00014       1.57792
 108    H  9  pz     Ryd( 2p)     0.00087       2.20438

 109    H 10  s      Val( 1s)     0.59202       0.07545
 110    H 10  s      Ryd( 2s)     0.00683       0.39849
 111    H 10  px     Ryd( 2p)     0.00038       1.90066
 112    H 10  py     Ryd( 2p)     0.00047       1.62464
 113    H 10  pz     Ryd( 2p)     0.00118       2.28678

 114    H 11  s      Val( 1s)     0.76198       0.05141
 115    H 11  s      Ryd( 2s)     0.00348       0.33177
 116    H 11  px     Ryd( 2p)     0.00014       1.78950
 117    H 11  py     Ryd( 2p)     0.00011       1.66036
 118    H 11  pz     Ryd( 2p)     0.00099       2.21939

 119    H 12  s      Val( 1s)     0.80976       0.04132
 120    H 12  s      Ryd( 2s)     0.00423       0.31452
 121    H 12  px     Ryd( 2p)     0.00023       1.75611
 122    H 12  py     Ryd( 2p)     0.00017       1.83995
 123    H 12  pz     Ryd( 2p)     0.00081       2.09839

 124    H 13  s      Val( 1s)     0.79701       0.05444
 125    H 13  s      Ryd( 2s)     0.00273       0.29631
 126    H 13  px     Ryd( 2p)     0.00041       1.85691
 127    H 13  py     Ryd( 2p)     0.00043       2.03189
 128    H 13  pz     Ryd( 2p)     0.00029       1.82935

 129    H 14  s      Val( 1s)     0.80936       0.04134
 130    H 14  s      Ryd( 2s)     0.00428       0.31486
 131    H 14  px     Ryd( 2p)     0.00031       1.82543
 132    H 14  py     Ryd( 2p)     0.00023       1.87548
 133    H 14  pz     Ryd( 2p)     0.00064       2.00756

 134    H 15  s      Val( 1s)     0.79664       0.05463
 135    H 15  s      Ryd( 2s)     0.00276       0.29788
 136    H 15  px     Ryd( 2p)     0.00020       1.73160
 137    H 15  py     Ryd( 2p)     0.00047       2.03888
 138    H 15  pz     Ryd( 2p)     0.00046       1.94205

   1 low occupancy (<1.9990e) core orbital  found on  C  4


 Summary of Natural Population Analysis:

                                     Natural Population
             Natural    ---------------------------------------------
  Atom No    Charge        Core      Valence    Rydberg      Total
 --------------------------------------------------------------------
    N  1   -0.72110      1.99934     5.70313    0.01863     7.72110
    C  2    0.27626      1.99925     3.69799    0.02650     5.72374
    N  3   -0.64318      1.99912     5.63003    0.01403     7.64318
    C  4   -0.08967      1.99899     4.07267    0.01801     6.08967
    C  5   -0.06960      1.99915     4.05064    0.01982     6.06960
    O  6   -0.57929      1.99978     6.56856    0.01095     8.57929
    C  7   -0.07137      1.99915     4.05229    0.01993     6.07137
    H  8    0.34511      0.00000     0.65061    0.00428     0.65489
    H  9    0.15185      0.00000     0.84291    0.00524     0.84815
    H 10    0.39913      0.00000     0.59202    0.00885     0.60087
    H 11    0.23330      0.00000     0.76198    0.00472     0.76670
    H 12    0.18480      0.00000     0.80976    0.00544     0.81520
    H 13    0.19913      0.00000     0.79701    0.00386     0.80087
    H 14    0.18517      0.00000     0.80936    0.00546     0.81483
    H 15    0.19946      0.00000     0.79664    0.00389     0.80054
 ====================================================================
 * Total *  0.00000     13.99477    39.83561    0.16962    54.00000

                                 Natural Population
 ---------------------------------------------------------
   Core                      13.99477 ( 99.9627% of   14)
   Valence                   39.83561 ( 99.5890% of   40)
   Natural Minimal Basis     53.83038 ( 99.6859% of   54)
   Natural Rydberg Basis      0.16962 (  0.3141% of   54)
 ---------------------------------------------------------

    Atom No         Natural Electron Configuration
 ----------------------------------------------------------------------------
      N  1      [core]2s( 1.47)2p( 4.23)3p( 0.01)3d( 0.01)
      C  2      [core]2s( 0.86)2p( 2.84)3s( 0.01)3p( 0.01)3d( 0.01)
      N  3      [core]2s( 1.23)2p( 4.40)3p( 0.01)
      C  4      [core]2s( 0.93)2p( 3.14)3p( 0.01)3d( 0.01)
      C  5      [core]2s( 1.03)2p( 3.02)3p( 0.01)3d( 0.01)
      O  6      [core]2s( 1.66)2p( 4.91)3p( 0.01)3d( 0.01)
      C  7      [core]2s( 1.03)2p( 3.02)3p( 0.01)3d( 0.01)
      H  8            1s( 0.65)
      H  9            1s( 0.84)
      H 10            1s( 0.59)2s( 0.01)
      H 11            1s( 0.76)
      H 12            1s( 0.81)
      H 13            1s( 0.80)
      H 14            1s( 0.81)
      H 15            1s( 0.80)


 NATURAL BOND ORBITAL ANALYSIS:

                            Occupancies       Lewis Structure    Low   High
         Max    Occ     -------------------  -----------------   occ   occ
  Cycle  Ctr   Thresh    Lewis   non-Lewis     CR  BD  nC  LP    (L)   (NL)
 ============================================================================
    1     2     1.90    53.26604   0.73396      7  16   0   4     1      1
    2     2     1.78    53.26604   0.73396      7  16   0   4     1      1
    3     2     1.70    53.26604   0.73396      7  16   0   4     0      1
    4     2     1.90    53.26604   0.73396      7  16   0   4     1      1
 ----------------------------------------------------------------------------

 Strongly delocalized structure accepted

 -------------------------------------------------------
   Core                     13.99477 ( 99.963% of  14)
   Valence Lewis            39.27127 ( 98.178% of  40)
  ==================      =============================
   Total Lewis              53.26604 ( 98.641% of  54)
  -----------------------------------------------------
   Valence non-Lewis         0.62393 (  1.155% of  54)
   Rydberg non-Lewis         0.11003 (  0.204% of  54)
  ==================      =============================
   Total non-Lewis           0.73396 (  1.359% of  54)
 -------------------------------------------------------


     (Occupancy)   Bond orbital / Coefficients / Hybrids
 ------------------ Lewis ------------------------------------------------------
   1. (1.99934) CR ( 1) N  1            s(100.00%)
                                         1.0000  0.0000  0.0000  0.0000  0.0000
                                         0.0000  0.0000  0.0000  0.0000  0.0000
                                         0.0000  0.0000  0.0000  0.0000
   2. (1.99925) CR ( 1) C  2            s(100.00%)
                                         1.0000  0.0000  0.0000  0.0000  0.0000
                                         0.0000  0.0000  0.0000  0.0000  0.0000
                                         0.0000  0.0000  0.0000  0.0000
   3. (1.99912) CR ( 1) N  3            s(100.00%)
                                         1.0000  0.0000  0.0000  0.0000  0.0000
                                         0.0000  0.0000  0.0000  0.0000  0.0000
                                         0.0000  0.0000  0.0000  0.0000
   4. (1.99899) CR ( 1) C  4            s(100.00%)
                                         1.0000  0.0000  0.0000  0.0000  0.0000
                                         0.0000  0.0000  0.0000  0.0000  0.0000
                                         0.0000  0.0000  0.0000  0.0000
   5. (1.99915) CR ( 1) C  5            s(100.00%)
                                         1.0000  0.0000  0.0000  0.0000  0.0000
                                         0.0000  0.0000  0.0000  0.0000  0.0000
                                         0.0000  0.0000  0.0000  0.0000
   6. (1.99978) CR ( 1) O  6            s(100.00%)
                                         1.0000  0.0000  0.0000  0.0000  0.0000
                                         0.0000  0.0000  0.0000  0.0000  0.0000
                                         0.0000  0.0000  0.0000  0.0000
   7. (1.99915) CR ( 1) C  7            s(100.00%)
                                         1.0000  0.0000  0.0000  0.0000  0.0000
                                         0.0000  0.0000  0.0000  0.0000  0.0000
                                         0.0000  0.0000  0.0000  0.0000
   8. (1.92024) LP ( 1) N  1            s( 37.23%)p 1.68( 62.68%)d 0.00(  0.09%)
                                         0.0000  0.6094 -0.0295 -0.3998 -0.0070
                                        -0.0173 -0.0024  0.6825  0.0285 -0.0015
                                         0.0244 -0.0001 -0.0048 -0.0168
   9. (1.70367) LP ( 1) N  3            s(  0.00%)p 1.00( 99.99%)d 0.00(  0.01%)
                                         0.0000  0.0003  0.0005 -0.1923 -0.0008
                                        -0.9715 -0.0191 -0.1374 -0.0012  0.0013
                                         0.0016  0.0067  0.0016  0.0016
  10. (1.98446) LP ( 1) O  6            s( 49.74%)p 1.01( 50.22%)d 0.00(  0.04%)
                                         0.0000  0.7053 -0.0029  0.6322 -0.0066
                                        -0.1633  0.0016  0.2753 -0.0044  0.0076
                                        -0.0099  0.0036 -0.0149  0.0027
  11. (1.90805) LP ( 2) O  6            s(  0.17%)p99.99( 99.75%)d 0.45(  0.08%)
                                         0.0000  0.0410 -0.0038  0.3719 -0.0027
                                         0.0575 -0.0005 -0.9251  0.0079  0.0011
                                         0.0195 -0.0063 -0.0100  0.0153
  12. (1.99500) BD ( 1) N  1- C  2
               ( 60.87%)   0.7802* N  1 s(  0.00%)p 1.00( 99.84%)d 0.00(  0.16%)
                                         0.0000 -0.0008  0.0011  0.1904 -0.0013
                                         0.9713 -0.0024  0.1370 -0.0001  0.0282
                                        -0.0013 -0.0271  0.0075 -0.0066
               ( 39.13%)   0.6256* C  2 s(  0.00%)p 1.00( 99.85%)d 0.00(  0.15%)
                                         0.0000 -0.0008  0.0015  0.1920 -0.0043
                                         0.9703 -0.0391  0.1365 -0.0040 -0.0352
                                        -0.0037  0.0088 -0.0135  0.0018
  13. (1.99121) BD ( 2) N  1- C  2
               ( 58.48%)   0.7647* N  1 s( 42.04%)p 1.38( 57.82%)d 0.00(  0.14%)
                                         0.0000  0.6474  0.0353  0.7353 -0.0201
                                        -0.1227  0.0037 -0.1485 -0.0019 -0.0093
                                        -0.0178  0.0014  0.0295 -0.0095
               ( 41.52%)   0.6444* C  2 s( 37.09%)p 1.69( 62.81%)d 0.00(  0.09%)
                                         0.0000  0.6075  0.0438 -0.7618 -0.0451
                                         0.1271  0.0084  0.1719  0.0043 -0.0078
                                        -0.0141  0.0016  0.0242 -0.0094
  14. (1.96712) BD ( 1) N  1- H  8
               ( 67.12%)   0.8193* N  1 s( 20.88%)p 3.78( 78.99%)d 0.01(  0.13%)
                                         0.0000  0.4567  0.0149 -0.5091  0.0374
                                         0.1989 -0.0083 -0.6998  0.0032 -0.0021
                                         0.0121 -0.0103  0.0004  0.0316
               ( 32.88%)   0.5734* H  8 s( 99.83%)p 0.00(  0.17%)
                                         0.9992 -0.0012  0.0263 -0.0094  0.0298
  15. (1.98482) BD ( 1) C  2- N  3
               ( 36.73%)   0.6060* C  2 s( 30.47%)p 2.28( 69.39%)d 0.00(  0.14%)
                                         0.0000  0.5517  0.0185  0.5440  0.0077
                                        -0.1917 -0.0050  0.6003  0.0275 -0.0105
                                         0.0289 -0.0113  0.0148  0.0120
               ( 63.27%)   0.7954* N  3 s( 37.61%)p 1.66( 62.35%)d 0.00(  0.04%)
                                         0.0000  0.6132  0.0093 -0.5350  0.0199
                                         0.1840 -0.0036 -0.5505 -0.0006 -0.0061
                                         0.0136 -0.0061  0.0099  0.0073
  16. (1.98254) BD ( 1) C  2- H  9
               ( 58.94%)   0.7677* C  2 s( 32.57%)p 2.07( 67.39%)d 0.00(  0.04%)
                                         0.0000  0.5693 -0.0406  0.2886 -0.0192
                                         0.0513  0.0032 -0.7665  0.0048  0.0011
                                        -0.0151 -0.0004  0.0029  0.0127
               ( 41.06%)   0.6408* H  9 s( 99.89%)p 0.00(  0.11%)
                                         0.9994 -0.0112 -0.0097 -0.0024  0.0309
  17. (1.98743) BD ( 1) N  3- C  4
               ( 61.71%)   0.7856* N  3 s( 36.88%)p 1.71( 63.08%)d 0.00(  0.04%)
                                         0.0000  0.6073  0.0028  0.7732 -0.0004
                                        -0.1358  0.0017 -0.1201 -0.0113 -0.0061
                                        -0.0056 -0.0006  0.0167 -0.0035
               ( 38.29%)   0.6188* C  4 s( 26.02%)p 2.84( 73.87%)d 0.00(  0.11%)
                                         0.0000  0.5093  0.0269 -0.8297 -0.0255
                                         0.1388  0.0032  0.1743  0.0068 -0.0096
                                        -0.0111  0.0013  0.0275 -0.0127
  18. (1.98284) BD ( 1) N  3- H 10
               ( 71.08%)   0.8431* N  3 s( 25.43%)p 2.93( 74.53%)d 0.00(  0.03%)
                                         0.0000  0.5043 -0.0069 -0.2803  0.0069
                                        -0.0595  0.0004  0.8143 -0.0106 -0.0004
                                        -0.0095 -0.0023  0.0043  0.0146
               ( 28.92%)   0.5378* H 10 s( 99.78%)p 0.00(  0.22%)
                                         0.9988 -0.0139  0.0200  0.0021 -0.0428
  19. (1.97775) BD ( 1) C  4- C  5
               ( 51.50%)   0.7176* C  4 s( 24.96%)p 3.00( 74.99%)d 0.00(  0.05%)
                                         0.0000  0.4996 -0.0009  0.4918 -0.0103
                                         0.5699  0.0196  0.4270 -0.0204  0.0110
                                         0.0150  0.0095  0.0049  0.0007
               ( 48.50%)   0.6964* C  5 s( 28.20%)p 2.54( 71.74%)d 0.00(  0.05%)
                                         0.0000  0.5309 -0.0102 -0.6329  0.0006
                                        -0.2685  0.0344 -0.4935 -0.0045  0.0141
                                         0.0144  0.0110  0.0038 -0.0022
  20. (1.97791) BD ( 1) C  4- C  7
               ( 51.45%)   0.7173* C  4 s( 24.94%)p 3.01( 75.01%)d 0.00(  0.05%)
                                         0.0000  0.4994 -0.0015  0.2211 -0.0184
                                        -0.8037 -0.0074  0.2328 -0.0248 -0.0128
                                         0.0069 -0.0124 -0.0085 -0.0048
               ( 48.55%)   0.6968* C  7 s( 28.21%)p 2.54( 71.73%)d 0.00(  0.05%)
                                         0.0000  0.5311 -0.0090 -0.4611 -0.0114
                                         0.6055 -0.0284 -0.3701 -0.0134 -0.0140
                                         0.0054 -0.0115 -0.0112 -0.0080
  21. (1.96971) BD ( 1) C  4- H 11
               ( 61.97%)   0.7872* C  4 s( 24.04%)p 3.16( 75.93%)d 0.00(  0.03%)
                                         0.0000  0.4902 -0.0116  0.1366 -0.0010
                                         0.0939 -0.0016 -0.8554  0.0124  0.0003
                                        -0.0044 -0.0029  0.0006  0.0155
               ( 38.03%)   0.6167* H 11 s( 99.87%)p 0.00(  0.13%)
                                         0.9993 -0.0053 -0.0089 -0.0030  0.0351
  22. (1.99046) BD ( 1) C  5- O  6
               ( 32.69%)   0.5718* C  5 s( 18.97%)p 4.26( 80.79%)d 0.01(  0.25%)
                                         0.0000  0.4349  0.0220  0.5213  0.0468
                                        -0.7074 -0.0139  0.1817  0.0169 -0.0351
                                         0.0076 -0.0090 -0.0235 -0.0237
               ( 67.31%)   0.8204* O  6 s( 25.03%)p 2.99( 74.87%)d 0.00(  0.11%)
                                         0.0000  0.5002  0.0037 -0.3253  0.0174
                                         0.7991  0.0201 -0.0590  0.0100 -0.0261
                                         0.0077 -0.0077 -0.0036 -0.0155
  23. (1.98851) BD ( 1) C  5- H 12
               ( 60.19%)   0.7758* C  5 s( 25.86%)p 2.87( 74.10%)d 0.00(  0.04%)
                                         0.0000  0.5085 -0.0056 -0.2871  0.0189
                                         0.2953  0.0134  0.7555 -0.0036 -0.0028
                                        -0.0127  0.0086  0.0030  0.0124
               ( 39.81%)   0.6310* H 12 s( 99.89%)p 0.00(  0.11%)
                                         0.9994 -0.0088  0.0098 -0.0125 -0.0285
  24. (1.99032) BD ( 1) C  5- H 13
               ( 60.67%)   0.7789* C  5 s( 26.91%)p 2.72( 73.06%)d 0.00(  0.04%)
                                         0.0000  0.5187  0.0058  0.4913 -0.0022
                                         0.5809 -0.0069 -0.3891  0.0158  0.0138
                                        -0.0088 -0.0101 -0.0009 -0.0008
               ( 39.33%)   0.6271* H 13 s( 99.90%)p 0.00(  0.10%)
                                         0.9995 -0.0060 -0.0186 -0.0223  0.0135
  25. (1.99043) BD ( 1) O  6- C  7
               ( 67.32%)   0.8205* O  6 s( 25.04%)p 2.99( 74.85%)d 0.00(  0.11%)
                                         0.0000  0.5004  0.0031 -0.5956  0.0087
                                        -0.5736 -0.0276 -0.2530  0.0033  0.0171
                                         0.0175  0.0073  0.0165 -0.0115
               ( 32.68%)   0.5717* C  7 s( 18.98%)p 4.26( 80.77%)d 0.01(  0.25%)
                                         0.0000  0.4350  0.0227  0.7365  0.0473
                                         0.3868 -0.0101  0.3361  0.0173  0.0363
                                         0.0234  0.0150  0.0099 -0.0172
  26. (1.98847) BD ( 1) C  7- H 14
               ( 60.21%)   0.7759* C  7 s( 25.86%)p 2.87( 74.10%)d 0.00(  0.04%)
                                         0.0000  0.5084 -0.0060 -0.4154  0.0130
                                        -0.3575 -0.0184  0.6634 -0.0082  0.0044
                                        -0.0154 -0.0092  0.0033  0.0081
               ( 39.79%)   0.6308* H 14 s( 99.90%)p 0.00(  0.10%)
                                         0.9994 -0.0088  0.0151  0.0148 -0.0242
  27. (1.99029) BD ( 1) C  7- H 15
               ( 60.69%)   0.7790* C  7 s( 26.89%)p 2.72( 73.08%)d 0.00(  0.04%)
                                         0.0000  0.5185  0.0051  0.2600 -0.0004
                                        -0.5956  0.0023 -0.5552  0.0174 -0.0082
                                        -0.0072  0.0136 -0.0063  0.0048
               ( 39.31%)   0.6270* H 15 s( 99.90%)p 0.00(  0.10%)
                                         0.9995 -0.0060 -0.0097  0.0231  0.0201
 ---------------- non-Lewis ----------------------------------------------------
  28. (0.23911) BD*( 1) N  1- C  2
               ( 39.13%)   0.6256* N  1 s(  0.00%)p 1.00( 99.84%)d 0.00(  0.16%)
                                         0.0000  0.0008 -0.0011 -0.1904  0.0013
                                        -0.9713  0.0024 -0.1370  0.0001 -0.0282
                                         0.0013  0.0271 -0.0075  0.0066
               ( 60.87%)  -0.7802* C  2 s(  0.00%)p 1.00( 99.85%)d 0.00(  0.15%)
                                         0.0000  0.0008 -0.0015 -0.1920  0.0043
                                        -0.9703  0.0391 -0.1365  0.0040  0.0352
                                         0.0037 -0.0088  0.0135 -0.0018
  29. (0.00565) BD*( 2) N  1- C  2
               ( 41.52%)   0.6444* N  1 s( 42.04%)p 1.38( 57.82%)d 0.00(  0.14%)
                                         0.0000 -0.6474 -0.0353 -0.7353  0.0201
                                         0.1227 -0.0037  0.1485  0.0019  0.0093
                                         0.0178 -0.0014 -0.0295  0.0095
               ( 58.48%)  -0.7647* C  2 s( 37.09%)p 1.69( 62.81%)d 0.00(  0.09%)
                                         0.0000 -0.6075 -0.0438  0.7618  0.0451
                                        -0.1271 -0.0084 -0.1719 -0.0043  0.0078
                                         0.0141 -0.0016 -0.0242  0.0094
  30. (0.00726) BD*( 1) N  1- H  8
               ( 32.88%)   0.5734* N  1 s( 20.88%)p 3.78( 78.99%)d 0.01(  0.13%)
                                         0.0000 -0.4567 -0.0149  0.5091 -0.0374
                                        -0.1989  0.0083  0.6998 -0.0032  0.0021
                                        -0.0121  0.0103 -0.0004 -0.0316
               ( 67.12%)  -0.8193* H  8 s( 99.83%)p 0.00(  0.17%)
                                        -0.9992  0.0012 -0.0263  0.0094 -0.0298
  31. (0.04967) BD*( 1) C  2- N  3
               ( 63.27%)   0.7954* C  2 s( 30.47%)p 2.28( 69.39%)d 0.00(  0.14%)
                                         0.0000  0.5517  0.0185  0.5440  0.0077
                                        -0.1917 -0.0050  0.6003  0.0275 -0.0105
                                         0.0289 -0.0113  0.0148  0.0120
               ( 36.73%)  -0.6060* N  3 s( 37.61%)p 1.66( 62.35%)d 0.00(  0.04%)
                                         0.0000  0.6132  0.0093 -0.5350  0.0199
                                         0.1840 -0.0036 -0.5505 -0.0006 -0.0061
                                         0.0136 -0.0061  0.0099  0.0073
  32. (0.05039) BD*( 1) C  2- H  9
               ( 41.06%)   0.6408* C  2 s( 32.57%)p 2.07( 67.39%)d 0.00(  0.04%)
                                         0.0000 -0.5693  0.0406 -0.2886  0.0192
                                        -0.0513 -0.0032  0.7665 -0.0048 -0.0011
                                         0.0151  0.0004 -0.0029 -0.0127
               ( 58.94%)  -0.7677* H  9 s( 99.89%)p 0.00(  0.11%)
                                        -0.9994  0.0112  0.0097  0.0024 -0.0309
  33. (0.03032) BD*( 1) N  3- C  4
               ( 38.29%)   0.6188* N  3 s( 36.88%)p 1.71( 63.08%)d 0.00(  0.04%)
                                         0.0000 -0.6073 -0.0028 -0.7732  0.0004
                                         0.1358 -0.0017  0.1201  0.0113  0.0061
                                         0.0056  0.0006 -0.0167  0.0035
               ( 61.71%)  -0.7856* C  4 s( 26.02%)p 2.84( 73.87%)d 0.00(  0.11%)
                                         0.0000 -0.5093 -0.0269  0.8297  0.0255
                                        -0.1388 -0.0032 -0.1743 -0.0068  0.0096
                                         0.0111 -0.0013 -0.0275  0.0127
  34. (0.02767) BD*( 1) N  3- H 10
               ( 28.92%)   0.5378* N  3 s( 25.43%)p 2.93( 74.53%)d 0.00(  0.03%)
                                         0.0000 -0.5043  0.0069  0.2803 -0.0069
                                         0.0595 -0.0004 -0.8143  0.0106  0.0004
                                         0.0095  0.0023 -0.0043 -0.0146
               ( 71.08%)  -0.8431* H 10 s( 99.78%)p 0.00(  0.22%)
                                        -0.9988  0.0139 -0.0200 -0.0021  0.0428
  35. (0.03344) BD*( 1) C  4- C  5
               ( 48.50%)   0.6964* C  4 s( 24.96%)p 3.00( 74.99%)d 0.00(  0.05%)
                                         0.0000 -0.4996  0.0009 -0.4918  0.0103
                                        -0.5699 -0.0196 -0.4270  0.0204 -0.0110
                                        -0.0150 -0.0095 -0.0049 -0.0007
               ( 51.50%)  -0.7176* C  5 s( 28.20%)p 2.54( 71.74%)d 0.00(  0.05%)
                                         0.0000 -0.5309  0.0102  0.6329 -0.0006
                                         0.2685 -0.0344  0.4935  0.0045 -0.0141
                                        -0.0144 -0.0110 -0.0038  0.0022
  36. (0.03353) BD*( 1) C  4- C  7
               ( 48.55%)   0.6968* C  4 s( 24.94%)p 3.01( 75.01%)d 0.00(  0.05%)
                                         0.0000 -0.4994  0.0015 -0.2211  0.0184
                                         0.8037  0.0074 -0.2328  0.0248  0.0128
                                        -0.0069  0.0124  0.0085  0.0048
               ( 51.45%)  -0.7173* C  7 s( 28.21%)p 2.54( 71.73%)d 0.00(  0.05%)
                                         0.0000 -0.5311  0.0090  0.4611  0.0114
                                        -0.6055  0.0284  0.3701  0.0134  0.0140
                                        -0.0054  0.0115  0.0112  0.0080
  37. (0.02230) BD*( 1) C  4- H 11
               ( 38.03%)   0.6167* C  4 s( 24.04%)p 3.16( 75.93%)d 0.00(  0.03%)
                                         0.0000 -0.4902  0.0116 -0.1366  0.0010
                                        -0.0939  0.0016  0.8554 -0.0124 -0.0003
                                         0.0044  0.0029 -0.0006 -0.0155
               ( 61.97%)  -0.7872* H 11 s( 99.87%)p 0.00(  0.13%)
                                        -0.9993  0.0053  0.0089  0.0030 -0.0351
  38. (0.00610) BD*( 1) C  5- O  6
               ( 67.31%)   0.8204* C  5 s( 18.97%)p 4.26( 80.79%)d 0.01(  0.25%)
                                         0.0000  0.4349  0.0220  0.5213  0.0468
                                        -0.7074 -0.0139  0.1817  0.0169 -0.0351
                                         0.0076 -0.0090 -0.0235 -0.0237
               ( 32.69%)  -0.5718* O  6 s( 25.03%)p 2.99( 74.87%)d 0.00(  0.11%)
                                         0.0000  0.5002  0.0037 -0.3253  0.0174
                                         0.7991  0.0201 -0.0590  0.0100 -0.0261
                                         0.0077 -0.0077 -0.0036 -0.0155
  39. (0.03148) BD*( 1) C  5- H 12
               ( 39.81%)   0.6310* C  5 s( 25.86%)p 2.87( 74.10%)d 0.00(  0.04%)
                                         0.0000 -0.5085  0.0056  0.2871 -0.0189
                                        -0.2953 -0.0134 -0.7555  0.0036  0.0028
                                         0.0127 -0.0086 -0.0030 -0.0124
               ( 60.19%)  -0.7758* H 12 s( 99.89%)p 0.00(  0.11%)
                                        -0.9994  0.0088 -0.0098  0.0125  0.0285
  40. (0.02471) BD*( 1) C  5- H 13
               ( 39.33%)   0.6271* C  5 s( 26.91%)p 2.72( 73.06%)d 0.00(  0.04%)
                                         0.0000 -0.5187 -0.0058 -0.4913  0.0022
                                        -0.5809  0.0069  0.3891 -0.0158 -0.0138
                                         0.0088  0.0101  0.0009  0.0008
               ( 60.67%)  -0.7789* H 13 s( 99.90%)p 0.00(  0.10%)
                                        -0.9995  0.0060  0.0186  0.0223 -0.0135
  41. (0.00608) BD*( 1) O  6- C  7
               ( 32.68%)   0.5717* O  6 s( 25.04%)p 2.99( 74.85%)d 0.00(  0.11%)
                                         0.0000 -0.5004 -0.0031  0.5956 -0.0087
                                         0.5736  0.0276  0.2530 -0.0033 -0.0171
                                        -0.0175 -0.0073 -0.0165  0.0115
               ( 67.32%)  -0.8205* C  7 s( 18.98%)p 4.26( 80.77%)d 0.01(  0.25%)
                                         0.0000 -0.4350 -0.0227 -0.7365 -0.0473
                                        -0.3868  0.0101 -0.3361 -0.0173 -0.0363
                                        -0.0234 -0.0150 -0.0099  0.0172
  42. (0.03142) BD*( 1) C  7- H 14
               ( 39.79%)   0.6308* C  7 s( 25.86%)p 2.87( 74.10%)d 0.00(  0.04%)
                                         0.0000 -0.5084  0.0060  0.4154 -0.0130
                                         0.3575  0.0184 -0.6634  0.0082 -0.0044
                                         0.0154  0.0092 -0.0033 -0.0081
               ( 60.21%)  -0.7759* H 14 s( 99.90%)p 0.00(  0.10%)
                                        -0.9994  0.0088 -0.0151 -0.0148  0.0242
  43. (0.02479) BD*( 1) C  7- H 15
               ( 39.31%)   0.6270* C  7 s( 26.89%)p 2.72( 73.08%)d 0.00(  0.04%)
                                         0.0000 -0.5185 -0.0051 -0.2600  0.0004
                                         0.5956 -0.0023  0.5552 -0.0174  0.0082
                                         0.0072 -0.0136  0.0063 -0.0048
               ( 60.69%)  -0.7790* H 15 s( 99.90%)p 0.00(  0.10%)
                                        -0.9995  0.0060  0.0097 -0.0231 -0.0201
  44. (0.00260) RY ( 1) N  1            s( 10.03%)p 8.67( 87.01%)d 0.29(  2.96%)
                                         0.0000  0.0099  0.3166 -0.0271 -0.1977
                                         0.0023  0.1659  0.0187 -0.8958 -0.0395
                                         0.1557 -0.0304  0.0401 -0.0354
  45. (0.00108) RY ( 2) N  1            s(  0.16%)p99.99( 93.86%)d36.90(  5.98%)
                                         0.0000 -0.0014  0.0402 -0.0040 -0.2338
                                        -0.0061 -0.9341 -0.0009 -0.1062  0.2028
                                         0.0502  0.0772  0.0993  0.0168
  46. (0.00042) RY ( 3) N  1            s( 31.65%)p 2.13( 67.57%)d 0.02(  0.78%)
                                         0.0000 -0.0146  0.5624 -0.0372 -0.7068
                                         0.0076  0.1517 -0.0076  0.3894 -0.0481
                                        -0.0052 -0.0068  0.0635 -0.0368
  47. (0.00008) RY ( 4) N  1            s( 42.95%)p 0.75( 32.28%)d 0.58( 24.77%)
  48. (0.00001) RY ( 5) N  1            s(  8.19%)p 1.37( 11.21%)d 9.84( 80.60%)
  49. (0.00000) RY ( 6) N  1            s(  5.48%)p 0.31(  1.73%)d16.92( 92.79%)
  50. (0.00000) RY ( 7) N  1            s(  1.38%)p 0.59(  0.82%)d70.76( 97.80%)
  51. (0.00000) RY ( 8) N  1            s(  0.00%)p 1.00(  3.80%)d25.34( 96.20%)
  52. (0.00000) RY ( 9) N  1            s(  0.00%)p 1.00(  2.39%)d40.81( 97.61%)
  53. (0.00799) RY ( 1) C  2            s( 44.65%)p 0.83( 37.18%)d 0.41( 18.17%)
                                         0.0000 -0.0287  0.6676  0.0136 -0.1851
                                         0.0035 -0.0479 -0.0521  0.5765 -0.0764
                                         0.4043 -0.0736  0.0560 -0.0616
  54. (0.00545) RY ( 2) C  2            s( 13.75%)p 5.21( 71.60%)d 1.07( 14.65%)
                                         0.0000  0.0261  0.3699 -0.0066  0.7193
                                         0.0040 -0.0685 -0.0317 -0.4392 -0.0968
                                         0.2587 -0.0206  0.1518 -0.2161
  55. (0.00314) RY ( 3) C  2            s(  0.00%)p 1.00( 12.61%)d 6.93( 87.38%)
                                         0.0000  0.0002  0.0053 -0.0085 -0.0695
                                        -0.0435 -0.3410 -0.0066 -0.0551 -0.7935
                                        -0.1629 -0.2763 -0.3687 -0.0736
  56. (0.00093) RY ( 4) C  2            s( 27.60%)p 1.93( 53.37%)d 0.69( 19.03%)
                                         0.0000 -0.0159  0.5251  0.0562 -0.4938
                                        -0.0087  0.1773 -0.0039 -0.5051  0.0094
                                        -0.3757  0.1007  0.1143 -0.1608
  57. (0.00047) RY ( 5) C  2            s(  3.33%)p13.46( 44.89%)d15.53( 51.77%)
                                         0.0000  0.0023  0.1826  0.0083  0.4249
                                         0.0069  0.2752  0.0009  0.4388 -0.0553
                                        -0.7033  0.1007 -0.0250 -0.0965
  58. (0.00038) RY ( 6) C  2            s(  0.66%)p99.99( 77.12%)d33.80( 22.23%)
                                         0.0000  0.0014  0.0811 -0.0004  0.0078
                                        -0.0241 -0.8753 -0.0030  0.0667  0.2960
                                        -0.2719  0.1763  0.1637 -0.0531
  59. (0.00014) RY ( 7) C  2            s(  9.07%)p 0.39(  3.53%)d 9.64( 87.40%)
                                         0.0000  0.0040  0.3011 -0.0096  0.1265
                                         0.0011 -0.0430 -0.0057 -0.1316  0.1472
                                        -0.0841 -0.1485 -0.2993  0.8566
  60. (0.00001) RY ( 8) C  2            s(  0.80%)p 0.25(  0.20%)d99.99( 98.99%)
  61. (0.00000) RY ( 9) C  2            s(  0.00%)p 1.00(  0.04%)d99.99( 99.96%)
  62. (0.00387) RY ( 1) N  3            s(  0.23%)p99.99( 98.48%)d 5.47(  1.28%)
                                         0.0000  0.0005  0.0485  0.0013 -0.3040
                                         0.0176 -0.9128  0.0022 -0.2425  0.0771
                                         0.0317 -0.0698  0.0247 -0.0204
  63. (0.00303) RY ( 2) N  3            s( 24.17%)p 2.79( 67.53%)d 0.34(  8.31%)
                                         0.0000 -0.0124  0.4914 -0.0057  0.0194
                                        -0.0028  0.2354  0.0041 -0.7870 -0.0774
                                         0.1993 -0.0024  0.0864 -0.1728
  64. (0.00198) RY ( 3) N  3            s(  0.03%)p99.99( 93.96%)d99.99(  6.00%)
                                         0.0000  0.0154  0.0095 -0.0097 -0.9217
                                        -0.0023  0.2968 -0.0063  0.0428  0.0188
                                         0.1021 -0.0392 -0.1225  0.1808
  65. (0.00129) RY ( 4) N  3            s( 72.97%)p 0.32( 23.66%)d 0.05(  3.37%)
                                         0.0000  0.0026  0.8542  0.0013 -0.0269
                                        -0.0003 -0.0766  0.0110  0.4795  0.0326
                                        -0.1603  0.0410  0.0665 -0.0284
  66. (0.00040) RY ( 5) N  3            s(  0.07%)p 5.34(  0.36%)d99.99( 99.57%)
                                         0.0000  0.0000  0.0261 -0.0009 -0.0118
                                        -0.0029 -0.0589 -0.0004  0.0027 -0.8358
                                        -0.2168 -0.3043 -0.3876 -0.0849
  67. (0.00017) RY ( 6) N  3            s(  0.05%)p99.99(  8.46%)d99.99( 91.49%)
                                         0.0000  0.0056  0.0213  0.0092  0.0641
                                        -0.0036 -0.0605  0.0179  0.2764 -0.1038
                                         0.9018 -0.1113 -0.1279 -0.2492
  68. (0.00009) RY ( 7) N  3            s(  2.22%)p 2.70(  6.00%)d41.29( 91.78%)
  69. (0.00002) RY ( 8) N  3            s(  0.33%)p 2.13(  0.71%)d99.99( 98.96%)
  70. (0.00000) RY ( 9) N  3            s(  0.00%)p 1.00(  0.88%)d99.99( 99.12%)
  71. (0.00610) RY ( 1) C  4            s(  4.65%)p19.65( 91.46%)d 0.83(  3.88%)
                                         0.0000 -0.0278  0.2139 -0.0058 -0.4981
                                         0.0073  0.1982 -0.0334 -0.7912 -0.0220
                                         0.1425  0.0042  0.0033 -0.1342
  72. (0.00229) RY ( 2) C  4            s( 27.72%)p 1.81( 50.30%)d 0.79( 21.98%)
                                         0.0000  0.0063  0.5264  0.0107  0.6687
                                        -0.0032 -0.0608 -0.0103 -0.2280 -0.1527
                                         0.1381 -0.0367  0.3640 -0.2087
  73. (0.00179) RY ( 3) C  4            s(  0.38%)p66.32( 25.28%)d99.99( 74.34%)
                                         0.0000 -0.0025  0.0617 -0.0011  0.0017
                                        -0.0256  0.4830 -0.0038  0.1373  0.7739
                                         0.1289 -0.0780  0.3487  0.0120
  74. (0.00149) RY ( 4) C  4            s( 25.33%)p 1.83( 46.26%)d 1.12( 28.41%)
                                         0.0000 -0.0177  0.5030  0.0327 -0.5015
                                        -0.0016 -0.0784 -0.0022  0.4514 -0.2770
                                         0.2093 -0.1334  0.3461  0.1612
  75. (0.00080) RY ( 5) C  4            s(  0.01%)p 1.00( 74.49%)d 0.34( 25.50%)
                                         0.0000  0.0012  0.0084  0.0011 -0.1209
                                         0.0066 -0.8440  0.0010 -0.1339  0.4727
                                         0.0556  0.0456  0.1622 -0.0083
  76. (0.00040) RY ( 6) C  4            s(  2.91%)p 1.78(  5.19%)d31.60( 91.90%)
                                         0.0000 -0.0038  0.1705  0.0308 -0.1770
                                        -0.0051  0.0261 -0.0057  0.1373  0.0341
                                        -0.6999  0.2702  0.1434 -0.5783
  77. (0.00023) RY ( 7) C  4            s(  0.01%)p39.61(  0.42%)d99.99( 99.56%)
                                         0.0000  0.0002  0.0103  0.0036 -0.0133
                                         0.0179 -0.0608  0.0024 -0.0058  0.0438
                                        -0.1931 -0.9388 -0.1417 -0.2345
  78. (0.00017) RY ( 8) C  4            s( 39.01%)p 0.02(  0.61%)d 1.55( 60.38%)
                                         0.0000  0.0087  0.6245 -0.0021  0.0627
                                        -0.0004  0.0041  0.0017  0.0463  0.2661
                                        -0.1621  0.0841 -0.6555  0.2645
  79. (0.00007) RY ( 9) C  4            s(  0.01%)p99.99(  6.18%)d99.99( 93.81%)
  80. (0.00626) RY ( 1) C  5            s( 23.32%)p 2.37( 55.29%)d 0.92( 21.39%)
                                         0.0000  0.0033  0.4829 -0.0420  0.0846
                                         0.0075 -0.7346 -0.0053  0.0652  0.2363
                                        -0.1324  0.1010 -0.3352 -0.1339
  81. (0.00258) RY ( 2) C  5            s(  0.14%)p99.99( 90.05%)d70.34(  9.81%)
                                         0.0000  0.0232  0.0293  0.0069 -0.9013
                                        -0.0279 -0.0188  0.0277  0.2936  0.1862
                                         0.0043 -0.1969  0.0420 -0.1515
  82. (0.00173) RY ( 3) C  5            s(  0.00%)p 1.00(  4.23%)d22.65( 95.77%)
                                         0.0000  0.0020  0.0067  0.0049 -0.1516
                                        -0.0011 -0.0090 -0.0090  0.1382 -0.3610
                                        -0.4195  0.7487  0.2314 -0.1931
  83. (0.00100) RY ( 4) C  5            s(  0.05%)p99.99( 95.47%)d92.53(  4.48%)
                                         0.0000  0.0220  0.0009  0.0270 -0.3393
                                        -0.0151 -0.0921  0.0041 -0.9111  0.0520
                                         0.0228  0.1718 -0.0265  0.1065
  84. (0.00046) RY ( 5) C  5            s( 36.97%)p 0.03(  1.12%)d 1.67( 61.91%)
                                         0.0000  0.0020  0.6080 -0.0155  0.0170
                                         0.0137 -0.0537 -0.0032 -0.0870 -0.3451
                                         0.2503 -0.2279  0.6127 -0.1003
  85. (0.00038) RY ( 6) C  5            s( 38.45%)p 0.90( 34.57%)d 0.70( 26.98%)
                                         0.0000 -0.0115  0.6200  0.0072 -0.0677
                                         0.0023  0.5833 -0.0008  0.0283  0.0204
                                        -0.1432  0.1072 -0.4034  0.2732
  86. (0.00008) RY ( 7) C  5            s(  0.30%)p 7.98(  2.43%)d99.99( 97.26%)
  87. (0.00003) RY ( 8) C  5            s(  0.59%)p22.47( 13.20%)d99.99( 86.21%)
  88. (0.00002) RY ( 9) C  5            s(  0.24%)p16.73(  3.96%)d99.99( 95.81%)
  89. (0.00191) RY ( 1) O  6            s(  0.00%)p 1.00( 95.70%)d 0.04(  4.30%)
                                         0.0000  0.0005  0.0061 -0.0012 -0.4292
                                        -0.0002 -0.0422  0.0023  0.8781  0.0038
                                        -0.1777  0.0459  0.0592 -0.0760
  90. (0.00107) RY ( 2) O  6            s(  0.01%)p 1.00( 63.23%)d 0.58( 36.76%)
                                         0.0000  0.0094  0.0032 -0.0024 -0.7066
                                        -0.0005  0.1987  0.0004 -0.3057 -0.2351
                                         0.2391 -0.1409  0.4804  0.0673
  91. (0.00016) RY ( 3) O  6            s(  0.01%)p 1.00( 16.51%)d 5.05( 83.48%)
                                         0.0000 -0.0001  0.0091  0.0028 -0.0815
                                         0.0136 -0.3936  0.0019 -0.0583 -0.3306
                                         0.1190  0.8186 -0.0035  0.2031
  92. (0.00009) RY ( 4) O  6            s(  0.01%)p99.99( 64.51%)d99.99( 35.48%)
  93. (0.00004) RY ( 5) O  6            s( 77.68%)p 0.09(  7.38%)d 0.19( 14.94%)
  94. (0.00003) RY ( 6) O  6            s(  8.81%)p 1.73( 15.25%)d 8.62( 75.95%)
  95. (0.00003) RY ( 7) O  6            s(  0.38%)p48.12( 18.41%)d99.99( 81.20%)
  96. (0.00001) RY ( 8) O  6            s(  3.12%)p 3.81( 11.86%)d27.29( 85.02%)
  97. (0.00000) RY ( 9) O  6            s( 10.00%)p 0.75(  7.46%)d 8.26( 82.54%)
  98. (0.00639) RY ( 1) C  7            s( 24.49%)p 2.22( 54.47%)d 0.86( 21.04%)
                                         0.0000  0.0036  0.4948 -0.0402  0.3306
                                         0.0091  0.6088 -0.0040  0.2512  0.1078
                                        -0.1493  0.1290 -0.3782 -0.1297
  99. (0.00261) RY ( 2) C  7            s(  0.09%)p99.99( 89.60%)d99.99( 10.31%)
                                         0.0000  0.0238  0.0184  0.0158 -0.8465
                                         0.0147  0.2743  0.0343  0.3201 -0.1982
                                         0.0489  0.2414 -0.0449 -0.0345
 100. (0.00173) RY ( 3) C  7            s(  0.02%)p99.99(  4.92%)d99.99( 95.07%)
[...]

                     48        49        50        51        52        53   
                   0.00000   0.00000   0.00000   0.00000   0.00000   0.00000
                   0.00000   0.00000   0.00000   0.00000   0.00799   0.00545
                  --------  --------  --------  --------  --------  --------
  0 N               108.5     104.4     102.9     102.8     -45.2     -17.6
  1 C                -1.8      -2.4      -0.7      -2.7     190.8     162.7
  2 N                -0.0      -0.2      -0.0      -0.0     -38.7      -9.3
  3 C                -0.0      -0.0      -0.0      -0.0      -1.7     -11.5
  7 H                -6.7      -1.6      -2.2      -0.0      -1.3      -0.7
  8 H                 0.0      -0.2       0.0      -0.0      -1.9     -23.0
  9 H                 0.0      -0.0       0.0      -0.0      -2.0      -0.5
 10 H                -0.0       0.0      -0.0      -0.0      -0.0       0.2

                     54        55        56        57        58        59   
                   0.00000   0.00000   0.00000   0.00000   0.00000   0.00000
                   0.00314   0.00093   0.00047   0.00038   0.00014   0.00001
                  --------  --------  --------  --------  --------  --------
  0 N                -2.8     -31.2      -3.7      -3.8      -3.4      -0.8
  1 C               103.9     155.3     134.9     115.5     119.7     103.6
  2 N                -0.8      -1.3     -21.9      -8.7      -5.9      -0.2
  3 C                -0.2      -0.3      -4.6      -1.6       2.0      -0.1
  7 H                -0.1      -2.2      -2.1      -0.6      -0.1      -0.1
  8 H                 0.0     -19.4      -1.1      -0.4     -11.7      -2.4
  9 H                -0.0      -0.2      -0.9      -0.2      -0.5      -0.0
 10 H                -0.0      -0.5      -0.6      -0.2      -0.0      -0.0

                     60        61        62        63        64        65   
                   0.00000   0.00000   0.00000   0.00000   0.00000   0.00000
                   0.00000   0.00387   0.00303   0.00198   0.00129   0.00040
                  --------  --------  --------  --------  --------  --------
  0 N                -0.9      -0.1      -0.3       0.7      -0.4      -0.0
  1 C               104.1      -3.7      -4.3     -24.5     -39.4      -1.4
  2 N                -0.3     111.6     144.9     158.2     170.7     102.6
  3 C                -0.0      -5.9     -27.0     -32.5     -30.6      -1.1
  4 C                -0.0      -0.0       1.2       1.6      -0.2      -0.0
  5 O                -0.0      -0.0      -0.0       0.0      -0.2      -0.0
  6 C                -0.0      -0.5       1.5       2.0      -0.2      -0.0
  7 H                -0.0      -0.0      -0.0      -0.1      -0.4      -0.0
  8 H                -2.8      -0.1       0.1      -1.6       0.3      -0.0
  9 H                -0.1      -1.0     -15.2      -2.5       0.0      -0.0
 10 H                -0.0      -0.1      -0.5      -0.5       0.6      -0.0
 11 H                -0.0      -0.1      -0.2      -0.3      -0.0      -0.0
 13 H                -0.0      -0.0      -0.3      -0.4      -0.0      -0.0

                     66        67        68        69        70        71   
                   0.00000   0.00000   0.00000   0.00000   0.00000   0.00000
                   0.00017   0.00009   0.00002   0.00000   0.00610   0.00229
                  --------  --------  --------  --------  --------  --------
  0 N                -0.2       0.3      -0.0      -0.0      -1.0      -0.2
  1 C                -2.4      -4.1      -1.3      -0.5     -10.6      -0.3
  2 N               110.3     110.2     103.0     103.7     -14.2      -3.7
  3 C                -2.6      -1.5      -0.8      -0.6     163.4     193.7
  4 C                 0.2      -0.1      -0.1      -0.0      -7.7     -36.8
  5 O                -0.0      -0.0      -0.0      -0.0      -0.6       0.1
  6 C                 0.2      -0.1      -0.1      -0.0      -7.4     -33.2
  8 H                 0.0      -0.1       0.0      -0.0       0.1      -0.6
  9 H                -5.5      -4.7      -0.7      -2.5      -0.3      -0.5
 10 H                -0.1      -0.0      -0.0      -0.1     -21.3     -19.7
 11 H                -0.0       0.0      -0.0      -0.0      -0.1      -0.4
 12 H                 0.0      -0.0      -0.0      -0.0      -0.1       1.0
 13 H                -0.0       0.0      -0.0      -0.0      -0.1      -0.3
 14 H                 0.0      -0.0      -0.0      -0.0      -0.1       0.9

                     72        73        74        75        76        77   
                   0.00000   0.00000   0.00000   0.00000   0.00000   0.00000
                   0.00179   0.00149   0.00080   0.00040   0.00023   0.00017
                  --------  --------  --------  --------  --------  --------
  0 N                 0.0      -0.0      -0.1       0.0       0.0      -0.1
  1 C                -0.0      -5.2      -0.7       0.5       0.0      -1.4
  2 N                -5.1     -49.9      -3.5      -1.4       0.0     -28.5
  3 C               112.4     203.6     143.6     109.4     103.8     200.3
  4 C                -5.5     -20.2     -17.9      -2.2      -0.6     -33.0
  5 O                -0.3      -0.9      -0.0      -0.1      -0.0       0.1
  6 C                -1.5     -28.3     -21.0      -2.1      -0.5     -30.5
  8 H                -0.0      -0.1       0.0       0.2      -0.0      -0.1
  9 H                -0.1      -0.5      -0.0      -0.6      -0.0      -0.8
 10 H                 0.5      -0.1      -1.2      -3.8      -2.4      -6.8
 11 H                 0.4       0.9       0.1       0.1      -0.2       0.6
 12 H                -0.4      -0.2       0.4       0.0       0.1      -0.1
 13 H                 0.0       1.3      -0.0       0.1      -0.2       0.6
 14 H                -0.3      -0.3       0.5       0.0       0.1      -0.2

                     78        79        80        81        82        83   
                   0.00000   0.00000   0.00000   0.00000   0.00000   0.00000
                   0.00007   0.00626   0.00258   0.00173   0.00100   0.00046
                  --------  --------  --------  --------  --------  --------
  1 C                 0.7      -0.1       0.0       0.0       0.0      -0.1
  2 N                -3.3       0.2       1.3       0.1      -0.3      -0.1
  3 C               113.8     -22.8     -20.2      -0.5     -26.2     -27.5
  4 C                -1.3     149.5     143.4     111.5     141.5     151.0
  5 O                -0.0     -13.4      -4.4      -1.7      -2.3      -6.2
  6 C                -1.4      -8.0       0.2       0.0       0.3      -1.8
 10 H                -8.6      -0.1      -0.2      -0.0       0.6       0.4
 11 H                 0.1      -3.2      -7.7      -5.7     -12.1      -6.3
 12 H                 0.0      -1.8     -12.1      -3.7      -1.3      -9.4
 13 H                 0.1      -0.0      -0.1      -0.0      -0.0       0.1
 14 H                 0.0      -0.2      -0.0      -0.0       0.0      -0.2

                     84        85        86        87        88        89   
                   0.00000   0.00000   0.00000   0.00000   0.00000   0.00000
                   0.00038   0.00008   0.00003   0.00002   0.00191   0.00107
                  --------  --------  --------  --------  --------  --------
  2 N                 1.0      -0.0       0.0      -0.0       0.1      -0.0
  3 C               -22.1      -1.7      -4.3      -1.2      -0.6       0.4
  4 C               161.2     107.2     117.5     107.3      -5.8      -1.5
  5 O                -1.5      -3.2      -0.3      -0.4     111.7     102.6
  6 C                -0.0      -0.1       0.3      -0.1      -5.8      -1.4
 10 H                -0.1       0.0       0.2       0.0      -0.0       0.0
 11 H               -19.0      -1.7      -2.0      -3.0       0.2       0.0
 12 H               -19.6      -0.4     -11.3      -2.5       0.0      -0.0
 13 H                 0.0      -0.0      -0.1      -0.0       0.2       0.0

                     90        91        92        93        94        95   
                   0.00000   0.00000   0.00000   0.00000   0.00000   0.00000
                   0.00016   0.00009   0.00004   0.00003   0.00003   0.00001
                  --------  --------  --------  --------  --------  --------
  3 C                -0.1      -0.1       0.1       0.1      -0.0       1.0
  4 C                -2.1      -7.0      -8.4      -5.1      -2.6      -2.0
  5 O               104.6     113.2     121.1     106.2     107.1     103.3
  6 C                -2.3      -6.7     -10.9      -0.9      -4.3      -2.1
 10 H                -0.0      -0.0      -0.2      -0.0      -0.0       0.0
 11 H                 0.0       0.1      -0.4      -0.1      -0.0      -0.0
 12 H                -0.0       0.2      -0.4      -0.1       0.0      -0.0
 13 H                 0.0       0.1      -0.4      -0.1      -0.0      -0.0
 14 H                -0.0       0.2      -0.4      -0.0      -0.0      -0.0

                     96        97        98        99       100       101   
                   0.00000   0.00000   0.00000   0.00000   0.00000   0.00000
                   0.00000   0.00639   0.00261   0.00173   0.00104   0.00046
                  --------  --------  --------  --------  --------  --------
  2 N                -0.0       0.3       1.3       0.1      -0.3      -0.2
  3 C                 0.5     -24.5     -19.8      -0.7     -26.3     -21.1
  4 C                -2.1      -8.1       0.2       0.0       0.3      -1.9
  5 O               104.3     -13.4      -4.6      -1.7      -2.6      -5.4
  6 C                -2.2     151.2     142.6     111.9     142.0     139.2
 10 H                -0.0      -0.2      -0.2      -0.0       0.7       0.3
 12 H                -0.2      -0.2      -0.0      -0.0       0.0      -0.2
 13 H                -0.0      -3.4      -7.2      -5.8     -12.3      -4.4
 14 H                -0.2      -1.8     -12.3      -3.9      -1.4      -6.3

                    102       103       104       105       106       107   
                   0.00000   0.00000   0.00000   0.00000   0.00000   0.00000
                   0.00036   0.00008   0.00003   0.00002   0.00166   0.00077
                  --------  --------  --------  --------  --------  --------
  0 N                -0.0       0.0       0.0      -0.0      -7.0      -3.2
  1 C                 0.0       0.0      -0.0      -0.0      -6.1      -0.5
  2 N                 1.2      -0.0       0.1      -0.0      -0.2      -0.2
  3 C               -27.5      -1.8      -4.2      -1.2      -0.1      -0.0
  4 C                 0.1      -0.2       0.4      -0.1      -0.0      -0.0
  5 O                -2.1      -3.3      -0.3      -0.3      -0.0      -0.0
  6 C               171.6     107.1     117.2     107.6      -0.0      -0.0
  7 H                -0.0      -0.0       0.0      -0.0     114.0     104.0
  8 H                -0.0       0.0       0.0       0.0      -0.7      -0.1
 10 H                -0.0       0.0       0.1       0.0       0.0      -0.0
 11 H                 0.0      -0.0      -0.1      -0.0      -0.0      -0.0
 13 H               -21.2      -1.6      -1.8      -3.1      -0.0      -0.0
 14 H               -22.1      -0.4     -11.3      -2.7      -0.0      -0.0

                    108       109       110       111       112       113   
                   0.00000   0.00000   0.00000   0.00000   0.00000   0.00000
                   0.00075   0.00002   0.00423   0.00014   0.00005   0.00004
                  --------  --------  --------  --------  --------  --------
  0 N                -3.1      -4.7      -1.3      -0.1      -0.4      -1.2
  1 C                -0.2      -0.1     -41.4      -2.8      -7.9      -3.2
  2 N                -0.1      -0.0      -0.9      -0.1       0.0      -0.7
  3 C                -0.0      -0.0      -0.8      -0.0       0.0      -0.2
  7 H               103.4     105.0      -0.8      -0.0      -0.0      -0.1
  8 H                -0.0      -0.1     150.2     103.1     108.3     105.5
 10 H                -0.0      -0.0      -4.8      -0.0      -0.0      -0.0

                    114       115       116       117       118       119   
                   0.00000   0.00000   0.00000   0.00000   0.00000   0.00000
                   0.00700   0.00050   0.00014   0.00005   0.00351   0.00011
                  --------  --------  --------  --------  --------  --------
  0 N                -0.1      -0.0      -0.0      -0.0      -0.2      -0.0
  1 C                -4.0      -0.1      -0.3      -0.0      -1.2      -0.0
  2 N                -6.7      -3.3      -3.4      -5.8      -0.3      -0.2
  3 C                -3.0      -0.1      -0.3      -0.1     -39.6      -2.8
  4 C                 0.1      -0.0      -0.0       0.0       0.2      -0.3
  6 C                 0.1      -0.0      -0.0       0.0       0.2      -0.3
  8 H                -0.1      -0.0      -0.0      -0.0      -4.7      -0.0
  9 H               116.6     103.7     104.1     106.0       0.0      -0.1
 10 H                -0.0      -0.1      -0.0      -0.0     148.0     103.8
 11 H                -1.4      -0.0      -0.0      -0.0       0.0      -0.0
 12 H                -0.0      -0.0      -0.0      -0.0      -1.2      -0.0
 13 H                -1.4      -0.0      -0.0      -0.0       0.0      -0.0
 14 H                -0.0      -0.0      -0.0      -0.0      -1.2      -0.0

                    120       121       122       123       124       125   
                   0.00000   0.00000   0.00000   0.00000   0.00000   0.00000
                   0.00007   0.00004   0.00434   0.00015   0.00012   0.00002
                  --------  --------  --------  --------  --------  --------
  2 N                -0.6      -0.1      -0.6      -0.1      -0.1      -0.0
  3 C                -4.1      -8.0       1.6      -0.1      -0.1      -0.3
  4 C                -0.1      -0.1     -39.5      -4.0      -3.9      -6.1
  5 O                -0.2      -0.0       0.1      -0.2      -0.1      -0.7
  6 C                -0.1      -0.1      -0.1      -0.1      -0.1      -0.1
  9 H                -0.0      -0.0      -1.5       0.0      -0.0      -0.0
 10 H               105.3     108.2       0.0      -0.0      -0.0      -0.0
 11 H                -0.0      -0.0     140.6     104.9     104.9     107.2
 12 H                -0.1       0.0      -0.7      -0.4      -0.6       0.0

                    126       127       128       129       130       131   
                   0.00000   0.00000   0.00000   0.00000   0.00000   0.00000
                   0.00278   0.00013   0.00012   0.00003   0.00439   0.00015
                  --------  --------  --------  --------  --------  --------
  2 N                 0.0      -0.0      -0.0      -0.0      -0.6      -0.1
  3 C                 0.7      -0.3      -0.2      -0.3       1.6      -0.1
  4 C               -40.6      -3.2      -4.3      -6.3      -0.1      -0.1
  5 O                 0.2      -0.2      -0.2      -0.7       0.2      -0.2
  6 C                -0.3      -0.0      -0.1       0.0     -39.4      -3.8
  9 H                -0.0      -0.0      -0.0      -0.0      -1.5       0.0
 10 H                -1.2       0.0      -0.1      -0.0       0.0      -0.0
 11 H                -0.8      -0.5      -0.5       0.0      -0.0       0.0
 12 H               142.1     104.1     105.4     107.4      -0.0      -0.0
 13 H                -0.0      -0.0      -0.0      -0.0     140.6     104.7
 14 H                -0.0      -0.0      -0.0      -0.0      -0.7      -0.4

                    132       133       134       135       136       137   
                   0.00000   0.00000   0.00000   0.00000   0.00000   0.00000
                   0.00012   0.00002   0.00281   0.00013   0.00012   0.00003
                  --------  --------  --------  --------  --------  --------
  3 C                -0.1      -0.3       0.6      -0.2      -0.2      -0.3
  4 C                -0.1      -0.1      -0.3      -0.0      -0.1       0.0
  5 O                -0.1      -0.6       0.2      -0.2      -0.2      -0.7
  6 C                -4.0      -6.1     -40.5      -3.2      -4.4      -6.3
 10 H                -0.0      -0.0      -1.2      -0.0      -0.1      -0.0
 13 H               105.0     107.1      -0.8      -0.5      -0.5       0.0
 14 H                -0.6       0.0     142.0     104.1     105.5     107.4


Storing NBOs: 6354.nbo
                                    *** NBOs were stored ***

                                *** returned from GENNBO program ***

-------
TIMINGS
-------

Total SCF time: 0 days 0 hours 0 min 5 sec 

Total time                  ....       5.141 sec
Sum of individual times     ....       5.611 sec  (109.1%)

Fock matrix formation       ....       3.253 sec  ( 63.3%)
  Coulomb formation         ....       1.745 sec  ( 53.6% of F)
  Split-RI-J                ....       1.738 sec  ( 53.4% of F)
  XC integration            ....       1.505 sec  ( 46.2% of F)
    Basis function eval.    ....       0.508 sec  ( 33.8% of XC)
    Density eval.           ....       0.276 sec  ( 18.3% of XC)
    XC-Functional eval.     ....       0.095 sec  (  6.3% of XC)
    XC-Potential eval.      ....       0.589 sec  ( 39.2% of XC)
Diagonalization             ....       0.022 sec  (  0.4%)
Density matrix formation    ....       0.003 sec  (  0.0%)
Population analysis         ....       1.299 sec  ( 25.3%)
Initial guess               ....       0.356 sec  (  6.9%)
Orbital Transformation      ....       0.000 sec  (  0.0%)
Orbital Orthonormalization  ....       0.000 sec  (  0.0%)
DIIS solution               ....       0.005 sec  (  0.1%)
SOSCF solution              ....       0.012 sec  (  0.2%)
Grid generation             ....       0.662 sec  ( 12.9%)
           ************************************************************
           *              Shut down parallel processing               *
           ************************************************************

-------------------------   --------------------
FINAL SINGLE POINT ENERGY      -341.247046936171
-------------------------   --------------------


                            ***************************************
                            *     ORCA property calculations      *
                            ***************************************

                                    ---------------------
                                    Active property flags
                                    ---------------------
   (+) Dipole Moment


------------------------------------------------------------------------------
                       ORCA ELECTRIC PROPERTIES CALCULATION
------------------------------------------------------------------------------

Dipole Moment Calculation                       ... on
Quadrupole Moment Calculation                   ... off
Polarizability Calculation                      ... off
GBWName                                         ... 6354.gbw
Electron density file                           ... 6354.scfp.tmp

-------------
DIPOLE MOMENT
-------------
                                X             Y             Z
Electronic contribution:      0.18928      -0.13064       0.67633
Nuclear contribution   :      0.04573       0.16706      -1.24900
                        -----------------------------------------
Total Dipole Moment    :      0.23501       0.03642      -0.57267
                        -----------------------------------------
Magnitude (a.u.)       :      0.62009
Magnitude (Debye)      :      1.57613


Timings for individual modules:

Sum of individual times         ...        6.294 sec (=   0.105 min)
GTO integral calculation        ...        0.469 sec (=   0.008 min)   7.5 %
SCF iterations                  ...        5.825 sec (=   0.097 min)  92.5 %
                             ****ORCA TERMINATED NORMALLY****
TOTAL RUN TIME: 0 days 0 hours 0 minutes 6 seconds 687 msec
