
                                 *****************
                                 * O   R   C   A *
                                 *****************

           --- An Ab Initio, DFT and Semiempirical electronic structure package ---

                  #######################################################
                  #                        -***-                        #
                  #  Department of molecular theory and spectroscopy    #
                  #              Directorship: Frank Neese              #
                  # Max Planck Institute for Chemical Energy Conversion #
                  #                  D-45470 Muelheim/Ruhr              #
                  #                       Germany                       #
                  #                                                     #
                  #                  All rights reserved                #
                  #                        -***-                        #
                  #######################################################


                         Program Version 3.0.3 - RELEASE   -


 With contributions from (in alphabetic order):
   Ute Becker             : Parallelization
   Dmytro Bykov           : SCF Hessian
   Dmitry Ganyushin       : Spin-Orbit,Spin-Spin,Magnetic field MRCI
   Andreas Hansen         : Spin unrestricted coupled pair/coupled cluster methods
   Dimitrios Liakos       : Extrapolation schemes; parallel MDCI
   Robert Izsak           : Overlap fitted RIJCOSX, COSX-SCS-MP3
   Christian Kollmar      : KDIIS, OOCD, Brueckner-CCSD(T), CCSD density
   Simone Kossmann        : Meta GGA functionals, TD-DFT gradient, OOMP2, MP2 Hessian
   Taras Petrenko         : DFT Hessian,TD-DFT gradient, ASA and ECA modules, normal mode analysis, Resonance Raman, ABS, FL, XAS/XES, NRVS
   Christoph Reimann      : Effective Core Potentials
   Michael Roemelt        : Restricted open shell CIS
   Christoph Riplinger    : Improved optimizer, TS searches, QM/MM, DLPNO-CCSD
   Barbara Sandhoefer     : DKH picture change effects
   Igor Schapiro          : Molecular dynamics
   Kantharuban Sivalingam : CASSCF convergence, NEVPT2
   Boris Wezisla          : Elementary symmetry handling
   Frank Wennmohs         : Technical directorship


 We gratefully acknowledge several colleagues who have allowed us to
 interface, adapt or use parts of their codes:
   Stefan Grimme, W. Hujo, H. Kruse, T. Risthaus : VdW corrections, initial TS optimization,
                                                   DFT functionals, gCP
   Ed Valeev                                     : LibInt (2-el integral package), F12 methods
   Garnet Chan, S. Sharma, R. Olivares           : DMRG
   Ulf Ekstrom                                   : XCFun DFT Library
   Mihaly Kallay                                 : mrcc  (arbitrary order and MRCC methods)
   Andreas Klamt, Michael Diedenhofen            : otool_cosmo (COSMO solvation model)
   Frank Weinhold                                : gennbo (NPA and NBO analysis)
   Christopher J. Cramer and Donald G. Truhlar   : smd solvation model


 Your calculation uses the libint2 library for the computation of 2-el integrals
 For citations please refer to: http://libint.valeyev.net

 This ORCA versions uses:
   CBLAS   interface :  Fast vector & matrix operations
   LAPACKE interface :  Fast linear algebra routines
   SCALAPACK package :  Parallel linear algebra routines


Your calculation utilizes the basis: Ahlrichs-VDZ
Cite in your paper:
H - Kr: A. Schaefer, H. Horn and R. Ahlrichs, J. Chem. Phys. 97, 2571 (1992).

Your calculation utilizes the basis: Ahlrichs SVPalls1+f
Cite in your paper:
Rb - Xe: A. Schaefer, C. Huber and R. Ahlrichs, J. Chem. Phys. 100, 5829 (1994).

================================================================================
                                        WARNINGS
                       Please study these warnings very carefully!
================================================================================
Now building the actual basis set


INFO   : the flag for use of LIBINT has been found!

================================================================================
                                       INPUT FILE
================================================================================
NAME = 6527.inp
|  1> ! RI PBE def2-SVP def2-SVP/J NBO PAL2
|  2> % maxcore 2000
|  3> % output
|  4>     # printlevel mini
|  5>     print[ P_Basis ] 0
|  6>     print[ P_SCFInfo ] 1
|  7>     print[ P_SCFIterInfo ] 1
|  8>     print[ P_OrbEn ] 0
|  9>     print[ P_Cartesian ] 0
| 10> end
| 11> *xyz 0 1
| 12>  O        1.0268880000     0.1033800000     0.2563820000 
| 13>  C        2.2158370000     0.0789480000     0.0537970000 
| 14>  C        2.9957070000    -1.2089470000    -0.0578450000 
| 15>  C        3.9541730000    -1.1758810000    -1.2452140000 
| 16>  N        4.7810740000     0.0108580000    -1.1687400000 
| 17>  C        3.9954370000     1.2214410000    -1.2921400000 
| 18>  C        3.0394810000     1.3338930000    -0.1076130000 
| 19>  H        2.2946090000    -2.0420290000    -0.1215110000 
| 20>  H        3.5842670000    -1.3165350000     0.8608190000 
| 21>  H        3.3637930000    -1.2181560000    -2.1781610000 
| 22>  H        4.5953330000    -2.0604430000    -1.2277700000 
| 23>  H        5.5054540000    -0.0154060000    -1.8736220000 
| 24>  H        3.4062280000     1.2474670000    -2.2264210000 
| 25>  H        4.6666610000     2.0834260000    -1.3088900000 
| 26>  H        2.3674240000     2.1874780000    -0.2042870000 
| 27>  H        3.6320250000     1.4570150000     0.8065280000 
| 28> *
| 29> 
| 30>                          ****END OF INPUT****
================================================================================

                       ****************************
                       * Single Point Calculation *
                       ****************************

--------------------------------
INTERNAL COORDINATES (ANGSTROEM)
--------------------------------
 O      0   0   0   0.000000     0.000     0.000
 C      1   0   0   1.206332     0.000     0.000
 C      2   1   0   1.509747   122.603     0.000
 C      3   2   1   1.526301   111.311   134.830
 N      4   3   2   1.448435   109.583    52.876
 C      5   4   3   1.448435   111.754   295.771
 C      2   1   3   1.509745   122.603   180.008
 H      3   2   1   1.090696   108.896    10.861
 H      3   2   1   1.096322   107.401   253.431
 H      4   3   2   1.104865   108.694   289.696
 H      4   3   2   1.092630   109.788   172.702
 H      5   4   3   1.011076   110.544   172.196
 H      6   5   4   1.104865   112.395   303.263
 H      6   5   4   1.092630   109.114   184.466
 H      7   2   1   1.090694   108.896   349.139
 H      7   2   1   1.096322   107.402   106.570

---------------------------
INTERNAL COORDINATES (A.U.)
---------------------------
 O      0   0   0   0.000000     0.000     0.000
 C      1   0   0   2.279637     0.000     0.000
 C      2   1   0   2.853008   122.603     0.000
 C      3   2   1   2.884291   111.311   134.830
 N      4   3   2   2.737145   109.583    52.876
 C      5   4   3   2.737146   111.754   295.771
 C      2   1   3   2.853004   122.603   180.008
 H      3   2   1   2.061116   108.896    10.861
 H      3   2   1   2.071748   107.401   253.431
 H      4   3   2   2.087892   108.694   289.696
 H      4   3   2   2.064772   109.788   172.702
 H      5   4   3   1.910657   110.544   172.196
 H      6   5   4   2.087891   112.395   303.263
 H      6   5   4   2.064772   109.114   184.466
 H      7   2   1   2.061113   108.896   349.139
 H      7   2   1   2.071748   107.402   106.570



           ************************************************************
           *        Program running with 2 parallel MPI-processes     *
           *              working on a common directory               *
           ************************************************************
------------------------------------------------------------------------------
                           ORCA GTO INTEGRAL CALCULATION
                           -- RI-GTO INTEGRALS CHOSEN --
------------------------------------------------------------------------------

                         BASIS SET STATISTICS AND STARTUP INFO

Gaussian basis set:
 # of primitive gaussian shells          ...  129
 # of primitive gaussian functions       ...  231
 # of contracted shells                  ...   69
 # of contracted basis functions         ...  143
 Highest angular momentum                ...    2
 Maximum contraction depth               ...    5
Auxiliary gaussian basis set:
 # of primitive gaussian shells          ...  240
 # of primitive gaussian functions       ...  634
 # of contracted shells                  ...  150
 # of contracted aux-basis functions     ...  442
 Highest angular momentum                ...    4
 Maximum contraction depth               ...    7
Ratio of auxiliary to basis functions    ...  3.09
Integral package used                  ... LIBINT
 One Electron integrals                  ... done
 Ordering auxiliary basis shells         ... done
 Integral threshhold             Thresh  ...  1.000e-10
 Primitive cut-off               TCut    ...  1.000e-11
 Pre-screening matrix                    ... done
 Shell pair data                         ... 
 Ordering of the shell pairs             ... done (   0.000 sec) 2365 of 2415 pairs
 Determination of significant pairs      ... done (   0.000 sec)
 Creation of shell pair data             ... done (   0.000 sec)
 Storage of shell pair data              ... done (   0.000 sec)
 Shell pair data done in (   0.001 sec)
 Computing two index integrals           ... done
 Cholesky decomposition of the V-matrix  ... done


Timings:
 Total evaluation time                   ...   0.160 sec (  0.003 min)
 One electron matrix time                ...   0.019 sec (  0.000 min) = 12.0%
 Schwartz matrix evaluation time         ...   0.071 sec (  0.001 min) = 44.3%
 Two index repulsion integral time       ...   0.008 sec (  0.000 min) =  4.8%
 Cholesky decomposition of V             ...   0.004 sec (  0.000 min) =  2.4%
 Three index repulsion integral time     ...   0.000 sec (  0.000 min) =  0.0%

           ************************************************************
           *              Shut down parallel processing               *
           ************************************************************


           ************************************************************
           *        Program running with 2 parallel MPI-processes     *
           *              working on a common directory               *
           ************************************************************
-------------------------------------------------------------------------------
                                 ORCA SCF
-------------------------------------------------------------------------------

------------
SCF SETTINGS
------------
Hamiltonian:
 Density Functional     Method          .... DFT(GTOs)
 Exchange Functional    Exchange        .... PBE
   PBE kappa parameter  XKappa          ....  0.804000
 Correlation Functional Correlation     .... PBE
 LDA part of GGA corr.  LDAOpt          .... PW91-LDA
 Gradients option       PostSCFGGA      .... off
   NL short-range parameter             ....  6.400000
 RI-approximation to the Coulomb term is turned on
   Number of auxiliary basis functions  .... 442


General Settings:
 Integral files         IntName         .... 6527
 Hartree-Fock type      HFTyp           .... RHF
 Total Charge           Charge          ....    0
 Multiplicity           Mult            ....    1
 Number of Electrons    NEL             ....   54
 Basis Dimension        Dim             ....  143
 Nuclear Repulsion      ENuc            ....    314.5387939555 Eh

Convergence Acceleration:
 DIIS                   CNVDIIS         .... on
   Start iteration      DIISMaxIt       ....    12
   Startup error        DIISStart       ....  0.200000
   # of expansion vecs  DIISMaxEq       ....     5
   Bias factor          DIISBfac        ....   1.050
   Max. coefficient     DIISMaxC        ....  10.000
 Newton-Raphson         CNVNR           .... off
 SOSCF                  CNVSOSCF        .... on
   Start iteration      SOSCFMaxIt      ....   150
   Startup grad/error   SOSCFStart      ....  0.003300
 Level Shifting         CNVShift        .... on
   Level shift para.    LevelShift      ....    0.2500
   Turn off err/grad.   ShiftErr        ....    0.0010
 Zerner damping         CNVZerner       .... off
 Static damping         CNVDamp         .... on
   Fraction old density DampFac         ....    0.7000
   Max. Damping (<1)    DampMax         ....    0.9800
   Min. Damping (>=0)   DampMin         ....    0.0000
   Turn off err/grad.   DampErr         ....    0.1000
 Fernandez-Rico         CNVRico         .... off

SCF Procedure:
 Maximum # iterations   MaxIter         ....   125
 SCF integral mode      SCFMode         .... Direct
   Integral package                     .... LIBINT
 Reset frequeny         DirectResetFreq ....    20
 Integral Threshold     Thresh          ....  1.000e-10 Eh
 Primitive CutOff       TCut            ....  1.000e-11 Eh

Convergence Tolerance:
 Convergence Check Mode ConvCheckMode   .... Total+1el-Energy
 Energy Change          TolE            ....  1.000e-06 Eh
 1-El. energy change                    ....  1.000e-03 Eh
 Orbital Gradient       TolG            ....  5.000e-05
 Orbital Rotation angle TolX            ....  5.000e-05
 DIIS Error             TolErr          ....  1.000e-06


Diagonalization of the overlap matrix:
Smallest eigenvalue                        ... 1.155e-03
Time for diagonalization                   ...    0.012 sec
Threshold for overlap eigenvalues          ... 1.000e-08
Number of eigenvalues below threshold      ... 0
Time for construction of square roots      ...    0.003 sec
Total time needed                          ...    0.016 sec

-------------------
DFT GRID GENERATION
-------------------

General Integration Accuracy     IntAcc      ...  4.340
Radial Grid Type                 RadialGrid  ... Gauss-Chebyshev
Angular Grid (max. acc.)         AngularGrid ... Lebedev-110
Angular grid pruning method      GridPruning ... 3 (G Style)
Weight generation scheme         WeightScheme... Becke
Basis function cutoff            BFCut       ...    1.0000e-10
Integration weight cutoff        WCut        ...    1.0000e-14
Grids for H and He will be reduced by one unit

# of grid points (after initial pruning)     ...  18844 (   0.0 sec)
# of grid points (after weights+screening)   ...  17374 (   0.1 sec)
nearest neighbour list constructed           ...    0.0 sec
Grid point re-assignment to atoms done       ...    0.0 sec
Grid point division into batches done        ...    0.0 sec
Reduced shell lists constructed in    0.1 sec

Total number of grid points                  ...    17374
Total number of batches                      ...      280
Average number of points per batch           ...       62
Average number of grid points per atom       ...     1086
Average number of shells per batch           ...    55.52 (80.47%)
Average number of basis functions per batch  ...   114.99 (80.41%)
Average number of large shells per batch     ...    45.62 (82.17%)
Average number of large basis fcns per batch ...    92.36 (80.32%)
Maximum spatial batch extension              ...  15.03, 20.95, 22.89 au
Average spatial batch extension              ...   1.38,  1.47,  1.49 au

Time for grid setup =    0.146 sec

------------------------------
INITIAL GUESS: MODEL POTENTIAL
------------------------------
Loading Hartree-Fock densities                     ... done
Calculating cut-offs                               ... done
Setting up the integral package                    ... done
Initializing the effective Hamiltonian             ... done
Starting the Coulomb interaction                   ... done (   0.0 sec)
Reading the grid                                   ... done
Mapping shells                                     ... done
Starting the XC term evaluation                    ... done (   0.1 sec)
  promolecular density results
     # of electrons  =     53.994650070
     EX              =    -42.939379938
     EC              =     -1.797471967
     EX+EC           =    -44.736851905
Transforming the Hamiltonian                       ... done (   0.0 sec)
Diagonalizing the Hamiltonian                      ... done (   0.0 sec)
Back transforming the eigenvectors                 ... done (   0.0 sec)
Now organizing SCF variables                       ... done
                      ------------------
                      INITIAL GUESS DONE (   0.4 sec)
                      ------------------
--------------
SCF ITERATIONS
--------------
ITER       Energy         Delta-E        Max-DP      RMS-DP      [F,P]     Damp
               ***  Starting incremental Fock matrix formation  ***
  0   -325.0745426375   0.000000000000 0.16003571  0.00414629  0.2250243 0.7000
  1   -325.1739920669  -0.099449429438 0.10582192  0.00276650  0.0778386 0.7000
                               ***Turning on DIIS***
  2   -325.2047547648  -0.030762697876 0.09250701  0.00354458  0.0213735 0.0000
  3   -325.2578757048  -0.053120939932 0.08412748  0.00200910  0.0458699 0.0000
  4   -325.2701092775  -0.012233572754 0.01616677  0.00051113  0.0247523 0.0000
  5   -325.2715254320  -0.001416154486 0.00654129  0.00020672  0.0057914 0.0000
                      *** Initiating the SOSCF procedure ***
                           *** Shutting down DIIS ***
                      *** Re-Reading the Fockian *** 
                      *** Removing any level shift *** 
ITER      Energy       Delta-E        Grad      Rot      Max-DP    RMS-DP
  6   -325.27161889  -0.0000934566  0.000489  0.000489  0.001646  0.000070
               *** Restarting incremental Fock matrix formation ***
  7   -325.27162652  -0.0000076344  0.000190  0.000435  0.001513  0.000057
  8   -325.27162516   0.0000013672  0.000311  0.000353  0.000811  0.000025
  9   -325.27162821  -0.0000030511  0.000060  0.000227  0.000620  0.000015
 10   -325.27162811   0.0000000966  0.000149  0.000175  0.000331  0.000008
 11   -325.27162825  -0.0000001392  0.000024  0.000075  0.000137  0.000006
 12   -325.27162824   0.0000000098  0.000022  0.000035  0.000105  0.000003
                 **** Energy Check signals convergence ****
              ***Rediagonalizing the Fockian in SOSCF/NRSCF***

               *****************************************************
               *                     SUCCESS                       *
               *           SCF CONVERGED AFTER  13 CYCLES          *
               *****************************************************

Setting up the final grid:

General Integration Accuracy     IntAcc      ...  4.670
Radial Grid Type                 RadialGrid  ... Gauss-Chebyshev
Angular Grid (max. acc.)         AngularGrid ... Lebedev-302
Angular grid pruning method      GridPruning ... 3 (G Style)
Weight generation scheme         WeightScheme... Becke
Basis function cutoff            BFCut       ...    1.0000e-10
Integration weight cutoff        WCut        ...    1.0000e-14
Grids for H and He will be reduced by one unit

# of grid points (after initial pruning)     ...  74030 (   0.0 sec)
# of grid points (after weights+screening)   ...  67246 (   0.1 sec)
nearest neighbour list constructed           ...    0.0 sec
Grid point re-assignment to atoms done       ...    0.0 sec
Grid point division into batches done        ...    0.2 sec
Reduced shell lists constructed in    0.4 sec

Total number of grid points                  ...    67246
Total number of batches                      ...     1058
Average number of points per batch           ...       63
Average number of grid points per atom       ...     4203
Average number of shells per batch           ...    52.18 (75.62%)
Average number of basis functions per batch  ...   107.40 (75.10%)
Average number of large shells per batch     ...    41.87 (80.24%)
Average number of large basis fcns per batch ...    83.89 (78.11%)
Maximum spatial batch extension              ...  16.68, 18.27, 21.14 au
Average spatial batch extension              ...   0.99,  1.00,  1.04 au

Final grid set up in    0.6 sec
Final integration                            ... done (   0.4 sec)
Change in XC energy                          ...    -0.000548723
Integrated number of electrons               ...    53.999955045
Previous integrated no of electrons          ...    53.997922887

----------------
TOTAL SCF ENERGY
----------------

Total Energy       :         -325.27217699 Eh           -8851.10592 eV

Components:
Nuclear Repulsion  :          314.53879396 Eh            8559.03572 eV
Electronic Energy  :         -639.81097095 Eh          -17410.14163 eV

One Electron Energy:        -1063.97741013 Eh          -28952.29724 eV
Two Electron Energy:          424.16643918 Eh           11542.15560 eV

Virial components:
Potential Energy   :         -647.60126580 Eh          -17622.12633 eV
Kinetic Energy     :          322.32908881 Eh            8771.02042 eV
Virial Ratio       :            2.00913069


DFT components:
N(Alpha)           :       26.999977522379 electrons
N(Beta)            :       26.999977522379 electrons
N(Total)           :       53.999955044757 electrons
E(X)               :      -43.796864416186 Eh       
E(C)               :       -1.807406330724 Eh       
E(XC)              :      -45.604270746910 Eh       

---------------
SCF CONVERGENCE
---------------

  Last Energy change         ...   -3.0692e-08  Tolerance :   1.0000e-06
  Last MAX-Density change    ...    1.3058e-05  Tolerance :   1.0000e-05
  Last RMS-Density change    ...    5.8363e-07  Tolerance :   1.0000e-06
  Last Orbital Gradient      ...    1.5653e-06  Tolerance :   5.0000e-05
  Last Orbital Rotation      ...    8.9342e-06  Tolerance :   5.0000e-05

             **** THE GBW FILE WAS UPDATED (6527.gbw) ****
             **** DENSITY FILE WAS UPDATED (6527.scfp.tmp) ****
             **** ENERGY FILE WAS UPDATED (6527.en.tmp) ****

                    ********************************
                    * MULLIKEN POPULATION ANALYSIS *
                    ********************************

-----------------------
MULLIKEN ATOMIC CHARGES
-----------------------
   0 O :   -0.151868
   1 C :   -0.113449
   2 C :    0.076682
   3 C :    0.083017
   4 N :   -0.255809
   5 C :    0.080991
   6 C :    0.077849
   7 H :    0.015798
   8 H :    0.030311
   9 H :   -0.010228
  10 H :    0.012435
  11 H :    0.105355
  12 H :   -0.010422
  13 H :    0.013304
  14 H :    0.015138
  15 H :    0.030896
Sum of atomic charges:   -0.0000000

--------------------------------
MULLIKEN REDUCED ORBITAL CHARGES
--------------------------------
  0 O s       :     3.736894  s :     3.736894
      pz      :     1.283270  p :     4.397203
      px      :     1.335394
      py      :     1.778540
      dz2     :     0.002072  d :     0.017771
      dxz     :     0.005702
      dyz     :     0.000131
      dx2y2   :     0.005809
      dxy     :     0.004057
  1 C s       :     3.176272  s :     3.176272
      pz      :     0.797292  p :     2.843121
      px      :     0.970546
      py      :     1.075282
      dz2     :     0.005119  d :     0.094057
      dxz     :     0.018555
      dyz     :     0.005693
      dx2y2   :     0.022619
      dxy     :     0.042071
  2 C s       :     2.934989  s :     2.934989
      pz      :     0.990005  p :     2.959244
      px      :     0.971573
      py      :     0.997666
      dz2     :     0.007472  d :     0.029085
      dxz     :     0.006867
      dyz     :     0.002659
      dx2y2   :     0.003928
      dxy     :     0.008158
  3 C s       :     2.978201  s :     2.978201
      pz      :     1.021819  p :     2.889488
      px      :     0.955653
      py      :     0.912017
      dz2     :     0.009595  d :     0.049294
      dxz     :     0.012200
      dyz     :     0.006720
      dx2y2   :     0.007408
      dxy     :     0.013371
  4 N s       :     3.462378  s :     3.462378
      pz      :     1.522801  p :     3.770093
      px      :     1.182226
      py      :     1.065067
      dz2     :     0.003368  d :     0.023338
      dxz     :     0.005222
      dyz     :     0.003581
      dx2y2   :     0.004587
      dxy     :     0.006580
  5 C s       :     2.978476  s :     2.978476
      pz      :     1.023385  p :     2.891229
      px      :     0.961099
      py      :     0.906745
      dz2     :     0.009627  d :     0.049305
      dxz     :     0.011933
      dyz     :     0.006976
      dx2y2   :     0.007425
      dxy     :     0.013344
  6 C s       :     2.934101  s :     2.934101
      pz      :     0.988730  p :     2.958962
      px      :     0.972389
      py      :     0.997842
      dz2     :     0.007340  d :     0.029089
      dxz     :     0.006966
      dyz     :     0.002772
      dx2y2   :     0.003861
      dxy     :     0.008149
  7 H s       :     0.961921  s :     0.961921
      pz      :     0.004361  p :     0.022280
      px      :     0.008564
      py      :     0.009356
  8 H s       :     0.945834  s :     0.945834
      pz      :     0.010774  p :     0.023855
      px      :     0.007966
      py      :     0.005115
  9 H s       :     0.989014  s :     0.989014
      pz      :     0.010729  p :     0.021213
      px      :     0.006780
      py      :     0.003705
 10 H s       :     0.966132  s :     0.966132
      pz      :     0.004783  p :     0.021433
      px      :     0.007042
      py      :     0.009608
 11 H s       :     0.850172  s :     0.850172
      pz      :     0.017830  p :     0.044473
      px      :     0.018617
      py      :     0.008026
 12 H s       :     0.989229  s :     0.989229
      pz      :     0.010763  p :     0.021193
      px      :     0.006816
      py      :     0.003615
 13 H s       :     0.965284  s :     0.965284
      pz      :     0.004776  p :     0.021411
      px      :     0.007376
      py      :     0.009260
 14 H s       :     0.962585  s :     0.962585
      pz      :     0.004372  p :     0.022277
      px      :     0.008228
      py      :     0.009677
 15 H s       :     0.945253  s :     0.945253
      pz      :     0.010702  p :     0.023852
      px      :     0.007992
      py      :     0.005158


                     *******************************
                     * LOEWDIN POPULATION ANALYSIS *
                     *******************************

----------------------
LOEWDIN ATOMIC CHARGES
----------------------
   0 O :   -0.119535
   1 C :    0.053241
   2 C :   -0.067867
   3 C :    0.017112
   4 N :   -0.101219
   5 C :    0.016774
   6 C :   -0.067762
   7 H :    0.034568
   8 H :    0.045098
   9 H :    0.000502
  10 H :    0.024229
  11 H :    0.060251
  12 H :    0.000485
  13 H :    0.024419
  14 H :    0.034447
  15 H :    0.045256

-------------------------------
LOEWDIN REDUCED ORBITAL CHARGES
-------------------------------
  0 O s       :     3.545507  s :     3.545507
      pz      :     1.288252  p :     4.542588
      px      :     1.467287
      py      :     1.787049
      dz2     :     0.004135  d :     0.031439
      dxz     :     0.007623
      dyz     :     0.000219
      dx2y2   :     0.012250
      dxy     :     0.007213
  1 C s       :     2.879462  s :     2.879462
      pz      :     0.777507  p :     2.848308
      px      :     1.025676
      py      :     1.045125
      dz2     :     0.012340  d :     0.218989
      dxz     :     0.034593
      dyz     :     0.011311
      dx2y2   :     0.055333
      dxy     :     0.105412
  2 C s       :     2.852216  s :     2.852216
      pz      :     1.036346  p :     3.134066
      px      :     1.050619
      py      :     1.047102
      dz2     :     0.020047  d :     0.081585
      dxz     :     0.020834
      dyz     :     0.005603
      dx2y2   :     0.010481
      dxy     :     0.024619
  3 C s       :     2.835766  s :     2.835766
      pz      :     1.047120  p :     3.027697
      px      :     1.009772
      py      :     0.970806
      dz2     :     0.023475  d :     0.119425
      dxz     :     0.033841
      dyz     :     0.012689
      dx2y2   :     0.015748
      dxy     :     0.033671
  4 N s       :     3.122842  s :     3.122842
      pz      :     1.557925  p :     3.924982
      px      :     1.242147
      py      :     1.124911
      dz2     :     0.006508  d :     0.053395
      dxz     :     0.011640
      dyz     :     0.006135
      dx2y2   :     0.011214
      dxy     :     0.017898
  5 C s       :     2.835732  s :     2.835732
      pz      :     1.046474  p :     3.028090
      px      :     1.014455
      py      :     0.967161
      dz2     :     0.023498  d :     0.119404
      dxz     :     0.033344
      dyz     :     0.013320
      dx2y2   :     0.015890
      dxy     :     0.033351
  6 C s       :     2.852177  s :     2.852177
      pz      :     1.036505  p :     3.133981
      px      :     1.050205
      py      :     1.047271
      dz2     :     0.019606  d :     0.081604
      dxz     :     0.021089
      dyz     :     0.006039
      dx2y2   :     0.010121
      dxy     :     0.024749
  7 H s       :     0.896424  s :     0.896424
      pz      :     0.012760  p :     0.069008
      px      :     0.025470
      py      :     0.030778
  8 H s       :     0.884628  s :     0.884628
      pz      :     0.033379  p :     0.070274
      px      :     0.022297
      py      :     0.014598
  9 H s       :     0.932315  s :     0.932315
      pz      :     0.033566  p :     0.067184
      px      :     0.022268
      py      :     0.011350
 10 H s       :     0.909850  s :     0.909850
      pz      :     0.013751  p :     0.065921
      px      :     0.021853
      py      :     0.030317
 11 H s       :     0.814063  s :     0.814063
      pz      :     0.056638  p :     0.125686
      px      :     0.048817
      py      :     0.020231
 12 H s       :     0.932333  s :     0.932333
      pz      :     0.033710  p :     0.067182
      px      :     0.022221
      py      :     0.011251
 13 H s       :     0.909630  s :     0.909630
      pz      :     0.013688  p :     0.065951
      px      :     0.022894
      py      :     0.029369
 14 H s       :     0.896560  s :     0.896560
      pz      :     0.012855  p :     0.068993
      px      :     0.024456
      py      :     0.031681
 15 H s       :     0.884459  s :     0.884459
      pz      :     0.033223  p :     0.070285
      px      :     0.022498
      py      :     0.014564


                      *****************************
                      * MAYER POPULATION ANALYSIS *
                      *****************************

  NA   - Mulliken gross atomic population
  ZA   - Total nuclear charge
  QA   - Mulliken gross atomic charge
  VA   - Mayer's total valence
  BVA  - Mayer's bonded valence
  FA   - Mayer's free valence

  ATOM       NA         ZA         QA         VA         BVA        FA
  0 O      8.1519     8.0000    -0.1519     2.3294     2.3294     0.0000
  1 C      6.1134     6.0000    -0.1134     4.3715     4.3715     0.0000
  2 C      5.9233     6.0000     0.0767     3.8672     3.8672    -0.0000
  3 C      5.9170     6.0000     0.0830     4.0924     4.0924    -0.0000
  4 N      7.2558     7.0000    -0.2558     3.1575     3.1575    -0.0000
  5 C      5.9190     6.0000     0.0810     4.0938     4.0938     0.0000
  6 C      5.9222     6.0000     0.0778     3.8675     3.8675    -0.0000
  7 H      0.9842     1.0000     0.0158     1.0155     1.0155    -0.0000
  8 H      0.9697     1.0000     0.0303     1.0008     1.0008    -0.0000
  9 H      1.0102     1.0000    -0.0102     0.9759     0.9759    -0.0000
 10 H      0.9876     1.0000     0.0124     0.9762     0.9762    -0.0000
 11 H      0.8946     1.0000     0.1054     0.9920     0.9920    -0.0000
 12 H      1.0104     1.0000    -0.0104     0.9758     0.9758    -0.0000
 13 H      0.9867     1.0000     0.0133     0.9761     0.9761    -0.0000
 14 H      0.9849     1.0000     0.0151     1.0156     1.0156    -0.0000
 15 H      0.9691     1.0000     0.0309     1.0007     1.0007    -0.0000

  Mayer bond orders larger than 0.1
B(  0-O ,  1-C ) :   2.2108 B(  1-C ,  2-C ) :   0.9944 B(  1-C ,  6-C ) :   0.9946 
B(  2-C ,  3-C ) :   1.0735 B(  2-C ,  7-H ) :   0.9122 B(  2-C ,  8-H ) :   0.8950 
B(  3-C ,  4-N ) :   1.0596 B(  3-C ,  9-H ) :   0.9121 B(  3-C , 10-H ) :   0.9325 
B(  4-N ,  5-C ) :   1.0601 B(  4-N , 11-H ) :   0.9374 B(  5-C ,  6-C ) :   1.0741 
B(  5-C , 12-H ) :   0.9118 B(  5-C , 13-H ) :   0.9323 B(  6-C , 14-H ) :   0.9119 
B(  6-C , 15-H ) :   0.8949 


 *********************************** NBO 6.0 ***********************************
             N A T U R A L   A T O M I C   O R B I T A L   A N D
          N A T U R A L   B O N D   O R B I T A L   A N A L Y S I S
 ***************************** Kiya KiyaLu (100703) ****************************
  (c) Copyright 1996-2015 Board of Regents of the University of Wisconsin System
      on behalf of the Theoretical Chemistry Institute.  All rights reserved.

          Cite this program as:

          NBO 6.0.  E. D. Glendening, J. K. Badenhoop, A. E. Reed,
          J. E. Carpenter, J. A. Bohmann, C. M. Morales, C. R. Landis,
          and F. Weinhold (Theoretical Chemistry Institute, University
          of Wisconsin, Madison, WI, 2013); http://nbo6.chem.wisc.edu/

       /NPA    / : Natural Population Analysis
       /NBO    / : Natural Bond Orbital Analysis
       /AONBO  / : Write the AO to NBO transformation to lfn77
       /FILE   / : Set to 6527

 Filename set to 6527

 Job title:  *** NBO job generated by orca_scf

 Warning: MOs are non-orthogonal; program will continue

 Warning: -2066.35291 electrons reside outside the linearly independent MO space


 NATURAL POPULATIONS:  Natural atomic orbital occupancies

  NAO Atom No lang   Type(AO)    Occupancy      Energy
 -------------------------------------------------------
   1    O  1  s      Cor( 1s)     1.99971     -18.47531
   2    O  1  s      Val( 2s)     1.68026      -0.78577
   3    O  1  s      Ryd( 3s)     0.00111       1.44052
   4    O  1  px     Val( 2p)     1.61920      -0.27344
   5    O  1  px     Ryd( 3p)     0.00054       0.99492
   6    O  1  py     Val( 2p)     1.87534      -0.19605
   7    O  1  py     Ryd( 3p)     0.00350       1.18719
   8    O  1  pz     Val( 2p)     1.33115      -0.22020
   9    O  1  pz     Ryd( 3p)     0.00052       1.03882
  10    O  1  dxy    Ryd( 3d)     0.00201       2.81655
  11    O  1  dxz    Ryd( 3d)     0.00221       2.76866
  12    O  1  dyz    Ryd( 3d)     0.00006       2.56841
  13    O  1  dx2y2  Ryd( 3d)     0.00228       3.07402
  14    O  1  dz2    Ryd( 3d)     0.00080       2.73130

  15    C  2  s      Cor( 1s)     1.99915      -9.85426
  16    C  2  s      Val( 2s)     0.81494      -0.13554
  17    C  2  s      Ryd( 3s)     0.00513       0.56780
  18    C  2  px     Val( 2p)     0.79919       0.00149
  19    C  2  px     Ryd( 3p)     0.02072       0.62589
  20    C  2  py     Val( 2p)     1.02029      -0.04877
  21    C  2  py     Ryd( 3p)     0.00459       0.72391
  22    C  2  pz     Val( 2p)     0.75615      -0.12305
  23    C  2  pz     Ryd( 3p)     0.00368       0.55412
  24    C  2  dxy    Ryd( 3d)     0.00411       2.32263
  25    C  2  dxz    Ryd( 3d)     0.00232       1.99227
  26    C  2  dyz    Ryd( 3d)     0.00054       1.84229
  27    C  2  dx2y2  Ryd( 3d)     0.00180       2.32492
  28    C  2  dz2    Ryd( 3d)     0.00058       2.05241

  29    C  3  s      Cor( 1s)     1.99901      -9.77515
  30    C  3  s      Val( 2s)     1.04368      -0.20732
  31    C  3  s      Ryd( 3s)     0.00184       0.94237
  32    C  3  px     Val( 2p)     1.16851      -0.08007
  33    C  3  px     Ryd( 3p)     0.00432       0.71553
  34    C  3  py     Val( 2p)     1.17232      -0.08304
  35    C  3  py     Ryd( 3p)     0.00410       0.59495
  36    C  3  pz     Val( 2p)     1.14739      -0.08162
  37    C  3  pz     Ryd( 3p)     0.00127       0.57515
  38    C  3  dxy    Ryd( 3d)     0.00074       2.31972
  39    C  3  dxz    Ryd( 3d)     0.00064       2.27881
  40    C  3  dyz    Ryd( 3d)     0.00023       1.95009
  41    C  3  dx2y2  Ryd( 3d)     0.00042       2.05827
  42    C  3  dz2    Ryd( 3d)     0.00068       2.22760

  43    C  4  s      Cor( 1s)     1.99914      -9.81200
  44    C  4  s      Val( 2s)     0.99322      -0.19803
  45    C  4  s      Ryd( 3s)     0.00137       0.88001
  46    C  4  px     Val( 2p)     1.06617      -0.07746
  47    C  4  px     Ryd( 3p)     0.00431       0.63342
  48    C  4  py     Val( 2p)     1.01821      -0.07251
  49    C  4  py     Ryd( 3p)     0.00377       0.61750
  50    C  4  pz     Val( 2p)     1.13510      -0.07970
  51    C  4  pz     Ryd( 3p)     0.00148       0.55299
  52    C  4  dxy    Ryd( 3d)     0.00126       2.31213
  53    C  4  dxz    Ryd( 3d)     0.00108       2.28396
  54    C  4  dyz    Ryd( 3d)     0.00073       1.97216
  55    C  4  dx2y2  Ryd( 3d)     0.00066       2.07208
  56    C  4  dz2    Ryd( 3d)     0.00085       2.23518

  57    N  5  s      Cor( 1s)     1.99933     -13.83772
  58    N  5  s      Val( 2s)     1.32236      -0.47773
  59    N  5  s      Ryd( 3s)     0.00111       1.12449
  60    N  5  px     Val( 2p)     1.40998      -0.18891
  61    N  5  px     Ryd( 3p)     0.00249       0.95860
  62    N  5  py     Val( 2p)     1.24301      -0.18668
  63    N  5  py     Ryd( 3p)     0.00190       1.04649
  64    N  5  pz     Val( 2p)     1.71634      -0.18288
  65    N  5  pz     Ryd( 3p)     0.00500       1.00045
  66    N  5  dxy    Ryd( 3d)     0.00093       2.65684
  67    N  5  dxz    Ryd( 3d)     0.00142       2.61424
  68    N  5  dyz    Ryd( 3d)     0.00063       2.30278
  69    N  5  dx2y2  Ryd( 3d)     0.00046       2.42474
  70    N  5  dz2    Ryd( 3d)     0.00125       2.45583

  71    C  6  s      Cor( 1s)     1.99914      -9.81198
  72    C  6  s      Val( 2s)     0.99321      -0.19803
  73    C  6  s      Ryd( 3s)     0.00137       0.87987
  74    C  6  px     Val( 2p)     1.07747      -0.07805
  75    C  6  px     Ryd( 3p)     0.00439       0.64273
  76    C  6  py     Val( 2p)     1.00802      -0.07240
  77    C  6  py     Ryd( 3p)     0.00370       0.61115
  78    C  6  pz     Val( 2p)     1.13454      -0.07942
  79    C  6  pz     Ryd( 3p)     0.00144       0.54954
  80    C  6  dxy    Ryd( 3d)     0.00125       2.31502
  81    C  6  dxz    Ryd( 3d)     0.00106       2.28349
  82    C  6  dyz    Ryd( 3d)     0.00076       1.97529
  83    C  6  dx2y2  Ryd( 3d)     0.00067       2.06627
  84    C  6  dz2    Ryd( 3d)     0.00084       2.23540

  85    C  7  s      Cor( 1s)     1.99901      -9.77518
  86    C  7  s      Val( 2s)     1.04368      -0.20730
  87    C  7  s      Ryd( 3s)     0.00183       0.94244
  88    C  7  px     Val( 2p)     1.16486      -0.08034
  89    C  7  px     Ryd( 3p)     0.00416       0.70799
  90    C  7  py     Val( 2p)     1.17603      -0.08256
  91    C  7  py     Ryd( 3p)     0.00420       0.59970
  92    C  7  pz     Val( 2p)     1.14723      -0.08174
  93    C  7  pz     Ryd( 3p)     0.00127       0.57871
  94    C  7  dxy    Ryd( 3d)     0.00075       2.31826
  95    C  7  dxz    Ryd( 3d)     0.00065       2.27913
  96    C  7  dyz    Ryd( 3d)     0.00025       1.96167
  97    C  7  dx2y2  Ryd( 3d)     0.00041       2.05786
  98    C  7  dz2    Ryd( 3d)     0.00067       2.21716

  99    H  8  s      Val( 1s)     0.74594       0.07814
 100    H  8  s      Ryd( 2s)     0.00434       0.33088
 101    H  8  px     Ryd( 2p)     0.00047       1.97254
 102    H  8  py     Ryd( 2p)     0.00049       2.07373
 103    H  8  pz     Ryd( 2p)     0.00008       1.74515

 104    H  9  s      Val( 1s)     0.74345       0.06045
 105    H  9  s      Ryd( 2s)     0.00403       0.33863
 106    H  9  px     Ryd( 2p)     0.00038       1.92994
 107    H  9  py     Ryd( 2p)     0.00014       1.76187
 108    H  9  pz     Ryd( 2p)     0.00061       2.12711

 109    H 10  s      Val( 1s)     0.80804       0.04847
 110    H 10  s      Ryd( 2s)     0.00535       0.34193
 111    H 10  px     Ryd( 2p)     0.00032       1.87579
 112    H 10  py     Ryd( 2p)     0.00010       1.76226
 113    H 10  pz     Ryd( 2p)     0.00069       2.10320

 114    H 11  s      Val( 1s)     0.76732       0.06799
 115    H 11  s      Ryd( 2s)     0.00214       0.30693
 116    H 11  px     Ryd( 2p)     0.00036       1.91836
 117    H 11  py     Ryd( 2p)     0.00061       2.09232
 118    H 11  pz     Ryd( 2p)     0.00012       1.73638

 119    H 12  s      Val( 1s)     0.62140       0.08158
 120    H 12  s      Ryd( 2s)     0.00311       0.39443
 121    H 12  px     Ryd( 2p)     0.00105       2.05702
 122    H 12  py     Ryd( 2p)     0.00025       1.80274
 123    H 12  pz     Ryd( 2p)     0.00101       2.01477

 124    H 13  s      Val( 1s)     0.80799       0.04849
 125    H 13  s      Ryd( 2s)     0.00536       0.34182
 126    H 13  px     Ryd( 2p)     0.00032       1.87740
 127    H 13  py     Ryd( 2p)     0.00010       1.75750
 128    H 13  pz     Ryd( 2p)     0.00069       2.10553

 129    H 14  s      Val( 1s)     0.76712       0.06815
 130    H 14  s      Ryd( 2s)     0.00214       0.30678
 131    H 14  px     Ryd( 2p)     0.00038       1.93763
 132    H 14  py     Ryd( 2p)     0.00058       2.07231
 133    H 14  pz     Ryd( 2p)     0.00012       1.73868

 134    H 15  s      Val( 1s)     0.74601       0.07816
 135    H 15  s      Ryd( 2s)     0.00435       0.33090
 136    H 15  px     Ryd( 2p)     0.00045       1.95304
 137    H 15  py     Ryd( 2p)     0.00052       2.09043
 138    H 15  pz     Ryd( 2p)     0.00008       1.74675

 139    H 16  s      Val( 1s)     0.74331       0.06057
 140    H 16  s      Ryd( 2s)     0.00403       0.33878
 141    H 16  px     Ryd( 2p)     0.00039       1.92967
 142    H 16  py     Ryd( 2p)     0.00014       1.76800
 143    H 16  pz     Ryd( 2p)     0.00061       2.12206


 Summary of Natural Population Analysis:

                                     Natural Population
             Natural    ---------------------------------------------
  Atom No    Charge        Core      Valence    Rydberg      Total
 --------------------------------------------------------------------
    O  1   -0.51869      1.99971     6.50595    0.01303     8.51869
    C  2    0.56680      1.99915     3.39057    0.04349     5.43320
    C  3   -0.54516      1.99901     4.53190    0.01425     6.54516
    C  4   -0.22736      1.99914     4.21270    0.01552     6.22736
    N  5   -0.70620      1.99933     5.69169    0.01518     7.70620
    C  6   -0.22786      1.99914     4.21324    0.01548     6.22786
    C  7   -0.54500      1.99901     4.53180    0.01419     6.54500
    H  8    0.24867      0.00000     0.74594    0.00539     0.75133
    H  9    0.25138      0.00000     0.74345    0.00517     0.74862
    H 10    0.18549      0.00000     0.80804    0.00647     0.81451
    H 11    0.22944      0.00000     0.76732    0.00323     0.77056
    H 12    0.37318      0.00000     0.62140    0.00542     0.62682
    H 13    0.18553      0.00000     0.80799    0.00648     0.81447
    H 14    0.22965      0.00000     0.76712    0.00323     0.77035
    H 15    0.24859      0.00000     0.74601    0.00540     0.75141
    H 16    0.25153      0.00000     0.74331    0.00516     0.74847
 ====================================================================
 * Total *  0.00000     13.99449    39.82843    0.17708    54.00000

                                 Natural Population
 ---------------------------------------------------------
   Core                      13.99449 ( 99.9606% of   14)
   Valence                   39.82843 ( 99.5711% of   40)
   Natural Minimal Basis     53.82292 ( 99.6721% of   54)
   Natural Rydberg Basis      0.17708 (  0.3279% of   54)
 ---------------------------------------------------------

    Atom No         Natural Electron Configuration
 ----------------------------------------------------------------------------
      O  1      [core]2s( 1.68)2p( 4.83)3d( 0.01)
      C  2      [core]2s( 0.81)2p( 2.58)3s( 0.01)3p( 0.03)3d( 0.01)
      C  3      [core]2s( 1.04)2p( 3.49)3p( 0.01)
      C  4      [core]2s( 0.99)2p( 3.22)3p( 0.01)
      N  5      [core]2s( 1.32)2p( 4.37)3p( 0.01)
      C  6      [core]2s( 0.99)2p( 3.22)3p( 0.01)
      C  7      [core]2s( 1.04)2p( 3.49)3p( 0.01)
      H  8            1s( 0.75)
      H  9            1s( 0.74)
      H 10            1s( 0.81)2s( 0.01)
      H 11            1s( 0.77)
      H 12            1s( 0.62)
      H 13            1s( 0.81)2s( 0.01)
      H 14            1s( 0.77)
      H 15            1s( 0.75)
      H 16            1s( 0.74)


 NATURAL BOND ORBITAL ANALYSIS:

                            Occupancies       Lewis Structure    Low   High
         Max    Occ     -------------------  -----------------   occ   occ
  Cycle  Ctr   Thresh    Lewis   non-Lewis     CR  BD  nC  LP    (L)   (NL)
 ============================================================================
    1     2     1.90    53.35609   0.64391      7  17   0   3     1      0
    2     2     1.87    53.35609   0.64391      7  17   0   3     0      0
    3     3     1.90    51.52412   2.47588      7  15   0   5     3      3
    4     2     1.90    53.35609   0.64391      7  17   0   3     1      0
 ----------------------------------------------------------------------------

 Strongly delocalized structure accepted

 -------------------------------------------------------
   Core                     13.99449 ( 99.961% of  14)
   Valence Lewis            39.36160 ( 98.404% of  40)
  ==================      =============================
   Total Lewis              53.35609 ( 98.808% of  54)
  -----------------------------------------------------
   Valence non-Lewis         0.52049 (  0.964% of  54)
   Rydberg non-Lewis         0.12342 (  0.229% of  54)
  ==================      =============================
   Total non-Lewis           0.64391 (  1.192% of  54)
 -------------------------------------------------------


     (Occupancy)   Bond orbital / Coefficients / Hybrids
 ------------------ Lewis ------------------------------------------------------
   1. (1.99971) CR ( 1) O  1            s(100.00%)
                                         1.0000  0.0000  0.0000  0.0000  0.0000
                                         0.0000  0.0000  0.0000  0.0000  0.0000
                                         0.0000  0.0000  0.0000  0.0000
   2. (1.99915) CR ( 1) C  2            s(100.00%)
                                         1.0000  0.0000  0.0000  0.0000  0.0000
                                         0.0000  0.0000  0.0000  0.0000  0.0000
                                         0.0000  0.0000  0.0000  0.0000
   3. (1.99901) CR ( 1) C  3            s(100.00%)
                                         1.0000  0.0000  0.0000  0.0000  0.0000
                                         0.0000  0.0000  0.0000  0.0000  0.0000
                                         0.0000  0.0000  0.0000  0.0000
   4. (1.99914) CR ( 1) C  4            s(100.00%)
                                         1.0000  0.0000  0.0000  0.0000  0.0000
                                         0.0000  0.0000  0.0000  0.0000  0.0000
                                         0.0000  0.0000  0.0000  0.0000
   5. (1.99933) CR ( 1) N  5            s(100.00%)
                                         1.0000  0.0000  0.0000  0.0000  0.0000
                                         0.0000  0.0000  0.0000  0.0000  0.0000
                                         0.0000  0.0000  0.0000  0.0000
   6. (1.99914) CR ( 1) C  6            s(100.00%)
                                         1.0000  0.0000  0.0000  0.0000  0.0000
                                         0.0000  0.0000  0.0000  0.0000  0.0000
                                         0.0000  0.0000  0.0000  0.0000
   7. (1.99901) CR ( 1) C  7            s(100.00%)
                                         1.0000  0.0000  0.0000  0.0000  0.0000
                                         0.0000  0.0000  0.0000  0.0000  0.0000
                                         0.0000  0.0000  0.0000  0.0000
   8. (1.97371) LP ( 1) O  1            s( 53.89%)p 0.85( 46.07%)d 0.00(  0.03%)
                                         0.0000  0.7340 -0.0127 -0.6691  0.0035
                                         0.0139  0.0000  0.1131 -0.0008  0.0006
                                         0.0057  0.0000 -0.0134  0.0110
   9. (1.87811) LP ( 2) O  1            s(  0.00%)p 1.00( 99.90%)d 0.00(  0.10%)
                                         0.0000  0.0007  0.0000 -0.0167  0.0003
                                        -0.9990  0.0173  0.0194 -0.0003 -0.0319
                                         0.0007  0.0053 -0.0012 -0.0002
  10. (1.90406) LP ( 1) N  5            s( 15.85%)p 5.31( 84.10%)d 0.00(  0.05%)
                                         0.0000  0.3980 -0.0090  0.4287  0.0069
                                         0.0085  0.0004  0.8101  0.0292 -0.0002
                                        -0.0169 -0.0003 -0.0046 -0.0150
  11. (1.99480) BD ( 1) O  1- C  2
               ( 66.84%)   0.8176* O  1 s( 46.11%)p 1.17( 53.72%)d 0.00(  0.18%)
                                         0.0000  0.6787  0.0209  0.7198  0.0180
                                        -0.0142 -0.0004 -0.1363 -0.0026 -0.0015
                                        -0.0120  0.0004  0.0367 -0.0166
               ( 33.16%)   0.5758* C  2 s( 30.79%)p 2.24( 69.01%)d 0.01(  0.19%)
                                         0.0000  0.5530  0.0454 -0.8183 -0.0647
                                         0.0167  0.0013  0.1262  0.0087 -0.0016
                                        -0.0117  0.0003  0.0376 -0.0194
  12. (1.98106) BD ( 2) O  1- C  2
               ( 65.12%)   0.8070* O  1 s(  0.01%)p 1.00( 99.82%)d 0.00(  0.17%)
                                         0.0000  0.0098  0.0000  0.1773  0.0028
                                         0.0162  0.0002  0.9830  0.0165  0.0005
                                         0.0386 -0.0009  0.0074 -0.0121
               ( 34.88%)   0.5906* C  2 s(  0.01%)p99.99( 99.72%)d21.71(  0.27%)
                                         0.0000  0.0072  0.0085  0.1575 -0.0022
                                         0.0167 -0.0003  0.9854 -0.0326 -0.0007
                                        -0.0492  0.0011 -0.0083  0.0138
  13. (1.98101) BD ( 1) C  2- C  3
               ( 47.93%)   0.6923* C  2 s( 34.41%)p 1.91( 65.55%)d 0.00(  0.04%)
                                         0.0000  0.5864 -0.0142  0.3754 -0.0317
                                        -0.7145 -0.0114 -0.0517  0.0143 -0.0162
                                        -0.0017  0.0027 -0.0087 -0.0089
               ( 52.07%)   0.7216* C  3 s( 27.07%)p 2.69( 72.88%)d 0.00(  0.04%)
                                         0.0000  0.5203 -0.0067 -0.4473 -0.0152
                                         0.7244 -0.0135  0.0588  0.0127 -0.0153
                                        -0.0009  0.0007 -0.0103 -0.0093
  14. (1.98100) BD ( 1) C  2- C  7
               ( 47.93%)   0.6923* C  2 s( 34.39%)p 1.91( 65.57%)d 0.00(  0.04%)
                                         0.0000  0.5863 -0.0145  0.4000 -0.0314
                                         0.6986  0.0131 -0.0795  0.0138  0.0167
                                        -0.0024 -0.0035 -0.0075 -0.0087
               ( 52.07%)   0.7216* C  7 s( 27.07%)p 2.69( 72.89%)d 0.00(  0.04%)
                                         0.0000  0.5202 -0.0067 -0.4719 -0.0147
                                        -0.7058  0.0144  0.0867  0.0120  0.0159
                                        -0.0015 -0.0017 -0.0092 -0.0092
  15. (1.96876) BD ( 1) C  3- C  4
               ( 50.54%)   0.7109* C  3 s( 28.01%)p 2.57( 71.95%)d 0.00(  0.04%)
                                         0.0000  0.5291  0.0101  0.5293  0.0037
                                         0.0006 -0.0230 -0.6624 -0.0083  0.0016
                                        -0.0155 -0.0058  0.0055  0.0076
               ( 49.46%)   0.7033* C  4 s( 28.46%)p 2.51( 71.50%)d 0.00(  0.04%)
                                         0.0000  0.5334 -0.0042 -0.5267  0.0046
                                        -0.0189 -0.0322  0.6605 -0.0011 -0.0015
                                        -0.0171  0.0022  0.0056  0.0086
  16. (1.97509) BD ( 1) C  3- H  8
               ( 62.58%)   0.7911* C  3 s( 23.36%)p 3.28( 76.61%)d 0.00(  0.03%)
                                         0.0000  0.4834  0.0040 -0.5475  0.0088
                                        -0.6807  0.0024 -0.0523  0.0114  0.0149
                                         0.0019  0.0020 -0.0013 -0.0087
               ( 37.42%)   0.6117* H  8 s( 99.90%)p 0.00(  0.10%)
                                         0.9995 -0.0036  0.0215  0.0239  0.0005
  17. (1.95107) BD ( 1) C  3- H  9
               ( 62.40%)   0.7900* C  3 s( 21.49%)p 3.65( 78.47%)d 0.00(  0.04%)
                                         0.0000  0.4636 -0.0017  0.4681 -0.0087
                                        -0.1047 -0.0164  0.7445  0.0046  0.0001
                                         0.0144  0.0022  0.0051  0.0110
               ( 37.60%)   0.6132* H  9 s( 99.89%)p 0.00(  0.11%)
                                         0.9994 -0.0050 -0.0178  0.0057 -0.0273
  18. (1.98629) BD ( 1) C  4- N  5
               ( 39.30%)   0.6269* C  4 s( 24.11%)p 3.14( 75.77%)d 0.00(  0.11%)
                                         0.0000  0.4908  0.0164  0.5003  0.0471
                                         0.7103  0.0076  0.0234 -0.0037  0.0270
                                         0.0008  0.0037 -0.0108 -0.0170
               ( 60.70%)   0.7791* N  5 s( 31.18%)p 2.20( 68.75%)d 0.00(  0.06%)
                                         0.0000  0.5584  0.0026 -0.4430 -0.0137
                                        -0.6996  0.0230 -0.0326 -0.0002  0.0179
                                         0.0029  0.0118 -0.0003 -0.0135
  19. (1.98576) BD ( 1) C  4- H 10
               ( 60.49%)   0.7778* C  4 s( 23.94%)p 3.18( 76.02%)d 0.00(  0.04%)
                                         0.0000  0.4890 -0.0145 -0.4439  0.0147
                                        -0.0005 -0.0218 -0.7500 -0.0021 -0.0006
                                         0.0159  0.0001  0.0056  0.0107
               ( 39.51%)   0.6286* H 10 s( 99.89%)p 0.00(  0.11%)
                                         0.9994 -0.0121  0.0168  0.0029  0.0281
  20. (1.97799) BD ( 1) C  4- H 11
               ( 61.66%)   0.7852* C  4 s( 23.43%)p 3.27( 76.53%)d 0.00(  0.04%)
                                         0.0000  0.4840  0.0087  0.5220 -0.0087
                                        -0.7017  0.0143  0.0063 -0.0100 -0.0169
                                         0.0004 -0.0018 -0.0034 -0.0090
               ( 38.34%)   0.6192* H 11 s( 99.89%)p 0.00(  0.11%)
                                         0.9995 -0.0034 -0.0179  0.0274 -0.0004
  21. (1.98629) BD ( 1) N  5- C  6
               ( 60.69%)   0.7790* N  5 s( 31.18%)p 2.21( 68.76%)d 0.00(  0.06%)
                                         0.0000  0.5583  0.0026 -0.4187 -0.0144
                                         0.7127 -0.0225 -0.0603  0.0005 -0.0177
                                         0.0031 -0.0128 -0.0010 -0.0127
               ( 39.31%)   0.6270* C  6 s( 24.12%)p 3.14( 75.77%)d 0.00(  0.11%)
                                         0.0000  0.4908  0.0163  0.4756  0.0467
                                        -0.7256 -0.0092  0.0515 -0.0034 -0.0261
                                         0.0016 -0.0054 -0.0124 -0.0167
  22. (1.97802) BD ( 1) N  5- H 12
               ( 69.05%)   0.8310* N  5 s( 21.70%)p 3.61( 78.23%)d 0.00(  0.08%)
                                         0.0000  0.4657  0.0074  0.6661 -0.0255
                                        -0.0229  0.0005 -0.5809 -0.0009 -0.0005
                                        -0.0225  0.0010  0.0013  0.0164
               ( 30.95%)   0.5563* H 12 s( 99.80%)p 0.00(  0.20%)
                                         0.9990 -0.0058 -0.0362  0.0010  0.0254
  23. (1.96874) BD ( 1) C  6- C  7
               ( 49.46%)   0.7033* C  6 s( 28.45%)p 2.51( 71.51%)d 0.00(  0.04%)
                                         0.0000  0.5334 -0.0043 -0.5253  0.0057
                                         0.0628  0.0319  0.6589 -0.0024  0.0005
                                        -0.0172 -0.0008  0.0057  0.0087
               ( 50.54%)   0.7109* C  7 s( 28.01%)p 2.57( 71.95%)d 0.00(  0.04%)
                                         0.0000  0.5292  0.0102  0.5285  0.0043
                                        -0.0447  0.0225 -0.6615 -0.0091 -0.0026
                                        -0.0152  0.0070  0.0051  0.0071
  24. (1.98576) BD ( 1) C  6- H 13
               ( 60.49%)   0.7778* C  6 s( 23.94%)p 3.18( 76.02%)d 0.00(  0.04%)
                                         0.0000  0.4890 -0.0143 -0.4442  0.0155
                                        -0.0135  0.0210 -0.7497 -0.0030  0.0009
                                         0.0159  0.0003  0.0056  0.0107
               ( 39.51%)   0.6285* H 13 s( 99.89%)p 0.00(  0.11%)
                                         0.9994 -0.0121  0.0168 -0.0024  0.0282
  25. (1.97798) BD ( 1) C  6- H 14
               ( 61.67%)   0.7853* C  6 s( 23.43%)p 3.27( 76.53%)d 0.00(  0.04%)
                                         0.0000  0.4840  0.0086  0.5458 -0.0091
                                         0.6831 -0.0144 -0.0208 -0.0095  0.0172
                                        -0.0002  0.0011 -0.0023 -0.0092
               ( 38.33%)   0.6191* H 14 s( 99.89%)p 0.00(  0.11%)
                                         0.9995 -0.0034 -0.0188 -0.0267  0.0006
  26. (1.97508) BD ( 1) C  7- H 15
               ( 62.58%)   0.7911* C  7 s( 23.37%)p 3.28( 76.60%)d 0.00(  0.03%)
                                         0.0000  0.4834  0.0041 -0.5239  0.0089
                                         0.6965 -0.0021 -0.0792  0.0114 -0.0146
                                         0.0024 -0.0027 -0.0022 -0.0085
               ( 37.42%)   0.6117* H 15 s( 99.90%)p 0.00(  0.10%)
                                         0.9995 -0.0036  0.0207 -0.0247  0.0014
  27. (1.95104) BD ( 1) C  7- H 16
               ( 62.41%)   0.7900* C  7 s( 21.49%)p 3.65( 78.47%)d 0.00(  0.04%)
                                         0.0000  0.4636 -0.0018  0.4719 -0.0080
                                         0.1175  0.0169  0.7402  0.0038  0.0001
                                         0.0144 -0.0017  0.0051  0.0112
               ( 37.59%)   0.6131* H 16 s( 99.89%)p 0.00(  0.11%)
                                         0.9994 -0.0050 -0.0180 -0.0061 -0.0271
 ---------------- non-Lewis ----------------------------------------------------
  28. (0.01667) BD*( 1) O  1- C  2
               ( 33.16%)   0.5758* O  1 s( 46.11%)p 1.17( 53.72%)d 0.00(  0.18%)
                                         0.0000 -0.6787 -0.0209 -0.7198 -0.0180
                                         0.0142  0.0004  0.1363  0.0026  0.0015
                                         0.0120 -0.0004 -0.0367  0.0166
               ( 66.84%)  -0.8176* C  2 s( 30.79%)p 2.24( 69.01%)d 0.01(  0.19%)
                                         0.0000 -0.5530 -0.0454  0.8183  0.0647
                                        -0.0167 -0.0013 -0.1262 -0.0087  0.0016
                                         0.0117 -0.0003 -0.0376  0.0194
  29. (0.09875) BD*( 2) O  1- C  2
               ( 34.88%)   0.5906* O  1 s(  0.01%)p 1.00( 99.82%)d 0.00(  0.17%)
                                         0.0000 -0.0098  0.0000 -0.1773 -0.0028
                                        -0.0162 -0.0002 -0.9830 -0.0165 -0.0005
                                        -0.0386  0.0009 -0.0074  0.0121
               ( 65.12%)  -0.8070* C  2 s(  0.01%)p99.99( 99.72%)d21.71(  0.27%)
                                         0.0000 -0.0072 -0.0085 -0.1575  0.0022
                                        -0.0167  0.0003 -0.9854  0.0326  0.0007
                                         0.0492 -0.0011  0.0083 -0.0138
  30. (0.06999) BD*( 1) C  2- C  3
               ( 52.07%)   0.7216* C  2 s( 34.41%)p 1.91( 65.55%)d 0.00(  0.04%)
                                         0.0000  0.5864 -0.0142  0.3754 -0.0317
                                        -0.7145 -0.0114 -0.0517  0.0143 -0.0162
                                        -0.0017  0.0027 -0.0087 -0.0089
               ( 47.93%)  -0.6923* C  3 s( 27.07%)p 2.69( 72.88%)d 0.00(  0.04%)
                                         0.0000  0.5203 -0.0067 -0.4473 -0.0152
                                         0.7244 -0.0135  0.0588  0.0127 -0.0153
                                        -0.0009  0.0007 -0.0103 -0.0093
  31. (0.07001) BD*( 1) C  2- C  7
               ( 52.07%)   0.7216* C  2 s( 34.39%)p 1.91( 65.57%)d 0.00(  0.04%)
                                         0.0000  0.5863 -0.0145  0.4000 -0.0314
                                         0.6986  0.0131 -0.0795  0.0138  0.0167
                                        -0.0024 -0.0035 -0.0075 -0.0087
               ( 47.93%)  -0.6923* C  7 s( 27.07%)p 2.69( 72.89%)d 0.00(  0.04%)
                                         0.0000  0.5202 -0.0067 -0.4719 -0.0147
                                        -0.7058  0.0144  0.0867  0.0120  0.0159
                                        -0.0015 -0.0017 -0.0092 -0.0092
  32. (0.02179) BD*( 1) C  3- C  4
               ( 49.46%)   0.7033* C  3 s( 28.01%)p 2.57( 71.95%)d 0.00(  0.04%)
                                         0.0000 -0.5291 -0.0101 -0.5293 -0.0037
                                        -0.0006  0.0230  0.6624  0.0083 -0.0016
                                         0.0155  0.0058 -0.0055 -0.0076
               ( 50.54%)  -0.7109* C  4 s( 28.46%)p 2.51( 71.50%)d 0.00(  0.04%)
                                         0.0000 -0.5334  0.0042  0.5267 -0.0046
                                         0.0189  0.0322 -0.6605  0.0011  0.0015
                                         0.0171 -0.0022 -0.0056 -0.0086
  33. (0.01223) BD*( 1) C  3- H  8
               ( 37.42%)   0.6117* C  3 s( 23.36%)p 3.28( 76.61%)d 0.00(  0.03%)
                                         0.0000 -0.4834 -0.0040  0.5475 -0.0088
                                         0.6807 -0.0024  0.0523 -0.0114 -0.0149
                                        -0.0019 -0.0020  0.0013  0.0087
               ( 62.58%)  -0.7911* H  8 s( 99.90%)p 0.00(  0.10%)
                                        -0.9995  0.0036 -0.0215 -0.0239 -0.0005
  34. (0.01718) BD*( 1) C  3- H  9
               ( 37.60%)   0.6132* C  3 s( 21.49%)p 3.65( 78.47%)d 0.00(  0.04%)
                                         0.0000 -0.4636  0.0017 -0.4681  0.0087
                                         0.1047  0.0164 -0.7445 -0.0046 -0.0001
                                        -0.0144 -0.0022 -0.0051 -0.0110
               ( 62.40%)  -0.7900* H  9 s( 99.89%)p 0.00(  0.11%)
                                        -0.9994  0.0050  0.0178 -0.0057  0.0273
  35. (0.01799) BD*( 1) C  4- N  5
               ( 60.70%)   0.7791* C  4 s( 24.11%)p 3.14( 75.77%)d 0.00(  0.11%)
                                         0.0000  0.4908  0.0164  0.5003  0.0471
                                         0.7103  0.0076  0.0234 -0.0037  0.0270
                                         0.0008  0.0037 -0.0108 -0.0170
               ( 39.30%)  -0.6269* N  5 s( 31.18%)p 2.20( 68.75%)d 0.00(  0.06%)
                                         0.0000  0.5584  0.0026 -0.4430 -0.0137
                                        -0.6996  0.0230 -0.0326 -0.0002  0.0179
                                         0.0029  0.0118 -0.0003 -0.0135
  36. (0.04004) BD*( 1) C  4- H 10
               ( 39.51%)   0.6286* C  4 s( 23.94%)p 3.18( 76.02%)d 0.00(  0.04%)
                                         0.0000 -0.4890  0.0145  0.4439 -0.0147
                                         0.0005  0.0218  0.7500  0.0021  0.0006
                                        -0.0159 -0.0001 -0.0056 -0.0107
               ( 60.49%)  -0.7778* H 10 s( 99.89%)p 0.00(  0.11%)
                                        -0.9994  0.0121 -0.0168 -0.0029 -0.0281
  37. (0.01576) BD*( 1) C  4- H 11
               ( 38.34%)   0.6192* C  4 s( 23.43%)p 3.27( 76.53%)d 0.00(  0.04%)
                                         0.0000 -0.4840 -0.0087 -0.5220  0.0087
                                         0.7017 -0.0143 -0.0063  0.0100  0.0169
                                        -0.0004  0.0018  0.0034  0.0090
               ( 61.66%)  -0.7852* H 11 s( 99.89%)p 0.00(  0.11%)
                                        -0.9995  0.0034  0.0179 -0.0274  0.0004
  38. (0.01799) BD*( 1) N  5- C  6
               ( 39.31%)   0.6270* N  5 s( 31.18%)p 2.21( 68.76%)d 0.00(  0.06%)
                                         0.0000 -0.5583 -0.0026  0.4187  0.0144
                                        -0.7127  0.0225  0.0603 -0.0005  0.0177
                                        -0.0031  0.0128  0.0010  0.0127
               ( 60.69%)  -0.7790* C  6 s( 24.12%)p 3.14( 75.77%)d 0.00(  0.11%)
                                         0.0000 -0.4908 -0.0163 -0.4756 -0.0467
                                         0.7256  0.0092 -0.0515  0.0034  0.0261
                                        -0.0016  0.0054  0.0124  0.0167
  39. (0.01507) BD*( 1) N  5- H 12
               ( 30.95%)   0.5563* N  5 s( 21.70%)p 3.61( 78.23%)d 0.00(  0.08%)
                                         0.0000 -0.4657 -0.0074 -0.6661  0.0255
                                         0.0229 -0.0005  0.5809  0.0009  0.0005
                                         0.0225 -0.0010 -0.0013 -0.0164
               ( 69.05%)  -0.8310* H 12 s( 99.80%)p 0.00(  0.20%)
                                        -0.9990  0.0058  0.0362 -0.0010 -0.0254
  40. (0.02180) BD*( 1) C  6- C  7
               ( 50.54%)   0.7109* C  6 s( 28.45%)p 2.51( 71.51%)d 0.00(  0.04%)
                                         0.0000  0.5334 -0.0043 -0.5253  0.0057
                                         0.0628  0.0319  0.6589 -0.0024  0.0005
                                        -0.0172 -0.0008  0.0057  0.0087
               ( 49.46%)  -0.7033* C  7 s( 28.01%)p 2.57( 71.95%)d 0.00(  0.04%)
                                         0.0000  0.5292  0.0102  0.5285  0.0043
                                        -0.0447  0.0225 -0.6615 -0.0091 -0.0026
                                        -0.0152  0.0070  0.0051  0.0071
  41. (0.04006) BD*( 1) C  6- H 13
               ( 39.51%)   0.6285* C  6 s( 23.94%)p 3.18( 76.02%)d 0.00(  0.04%)
                                         0.0000 -0.4890  0.0143  0.4442 -0.0155
                                         0.0135 -0.0210  0.7497  0.0030 -0.0009
                                        -0.0159 -0.0003 -0.0056 -0.0107
               ( 60.49%)  -0.7778* H 13 s( 99.89%)p 0.00(  0.11%)
                                        -0.9994  0.0121 -0.0168  0.0024 -0.0282
  42. (0.01576) BD*( 1) C  6- H 14
               ( 38.33%)   0.6191* C  6 s( 23.43%)p 3.27( 76.53%)d 0.00(  0.04%)
                                         0.0000 -0.4840 -0.0086 -0.5458  0.0091
                                        -0.6831  0.0144  0.0208  0.0095 -0.0172
                                         0.0002 -0.0011  0.0023  0.0092
               ( 61.67%)  -0.7853* H 14 s( 99.89%)p 0.00(  0.11%)
                                        -0.9995  0.0034  0.0188  0.0267 -0.0006
  43. (0.01223) BD*( 1) C  7- H 15
               ( 37.42%)   0.6117* C  7 s( 23.37%)p 3.28( 76.60%)d 0.00(  0.03%)
                                         0.0000 -0.4834 -0.0041  0.5239 -0.0089
                                        -0.6965  0.0021  0.0792 -0.0114  0.0146
                                        -0.0024  0.0027  0.0022  0.0085
               ( 62.58%)  -0.7911* H 15 s( 99.90%)p 0.00(  0.10%)
                                        -0.9995  0.0036 -0.0207  0.0247 -0.0014
  44. (0.01717) BD*( 1) C  7- H 16
               ( 37.59%)   0.6131* C  7 s( 21.49%)p 3.65( 78.47%)d 0.00(  0.04%)
                                         0.0000 -0.4636  0.0018 -0.4719  0.0080
                                        -0.1175 -0.0169 -0.7402 -0.0038 -0.0001
                                        -0.0144  0.0017 -0.0051 -0.0112
               ( 62.41%)  -0.7900* H 16 s( 99.89%)p 0.00(  0.11%)
                                        -0.9994  0.0050  0.0180  0.0061  0.0271
  45. (0.00304) RY ( 1) O  1            s(  0.00%)p 1.00( 97.01%)d 0.03(  2.99%)
                                         0.0000  0.0000  0.0021 -0.0003 -0.0169
                                        -0.0114 -0.9845  0.0001  0.0215 -0.1707
                                         0.0038  0.0274 -0.0061 -0.0011
  46. (0.00035) RY ( 2) O  1            s( 47.07%)p 1.11( 52.18%)d 0.02(  0.76%)
                                         0.0000 -0.0057  0.6860 -0.0204  0.2561
                                         0.0001  0.0116 -0.0119  0.6749  0.0024
                                         0.0847 -0.0012  0.0190 -0.0025
  47. (0.00015) RY ( 3) O  1            s( 50.55%)p 0.92( 46.64%)d 0.06(  2.81%)
                                         0.0000 -0.0030  0.7110 -0.0117 -0.0608
                                         0.0006 -0.0122  0.0201 -0.6797  0.0001
                                        -0.1347  0.0012 -0.0957  0.0281
  48. (0.00008) RY ( 4) O  1            s(  1.03%)p77.72( 80.06%)d18.36( 18.91%)
  49. (0.00002) RY ( 5) O  1            s(  0.74%)p21.64( 16.06%)d99.99( 83.19%)
  50. (0.00001) RY ( 6) O  1            s(  0.00%)p 1.00(  2.11%)d46.40( 97.89%)
  51. (0.00000) RY ( 7) O  1            s(  0.02%)p36.42(  0.88%)d99.99( 99.10%)
  52. (0.00000) RY ( 8) O  1            s(  0.00%)p 1.00(  0.99%)d99.99( 99.01%)
  53. (0.00000) RY ( 9) O  1            s(  0.58%)p 7.92(  4.57%)d99.99( 94.85%)
  54. (0.01856) RY ( 1) C  2            s( 14.10%)p 6.09( 85.86%)d 0.00(  0.04%)
                                         0.0000 -0.0730  0.3683  0.0430 -0.9161
                                        -0.0009  0.0180 -0.0070  0.1309  0.0002
                                         0.0049 -0.0005 -0.0181 -0.0038
  55. (0.00739) RY ( 2) C  2            s(  0.00%)p 1.00( 53.49%)d 0.87( 46.51%)
                                         0.0000  0.0001  0.0019  0.0006 -0.0117
                                         0.0288 -0.7306 -0.0006  0.0109 -0.6668
                                         0.0135  0.1399 -0.0256 -0.0044
  56. (0.00466) RY ( 3) C  2            s( 10.46%)p 6.03( 63.11%)d 2.53( 26.43%)
                                         0.0000  0.0129  0.3232  0.0123  0.0135
                                        -0.0014 -0.0152 -0.0577 -0.7920 -0.0038
                                        -0.5015  0.0116 -0.0085  0.1118
  57. (0.00177) RY ( 4) C  2            s(  0.00%)p 1.00( 45.05%)d 1.22( 54.95%)
                                         0.0000  0.0000  0.0004  0.0000 -0.0112
                                        -0.0055 -0.6709  0.0006  0.0163  0.7401
                                        -0.0113  0.0288  0.0276 -0.0014
  58. (0.00112) RY ( 5) C  2            s( 27.62%)p 0.20(  5.42%)d 2.42( 66.96%)
                                         0.0000  0.0006  0.5255  0.0502  0.2111
                                        -0.0006  0.0006  0.0075  0.0838 -0.0257
                                         0.1859  0.0099  0.7942 -0.0603
  59. (0.00048) RY ( 6) C  2            s( 41.40%)p 0.19(  7.67%)d 1.23( 50.93%)
                                         0.0000  0.0202  0.6431  0.0016  0.2753
                                         0.0003 -0.0037  0.0104  0.0282  0.0279
                                         0.3447 -0.0230 -0.5956 -0.1855
  60. (0.00041) RY ( 7) C  2            s(  0.00%)p 1.00(  1.51%)d65.12( 98.49%)
                                         0.0000  0.0000  0.0010  0.0000 -0.0015
                                        -0.0005 -0.1229  0.0000  0.0038 -0.0738
                                        -0.0168 -0.9888  0.0158  0.0333
  61. (0.00004) RY ( 8) C  2            s(  0.14%)p42.01(  5.89%)d99.99( 93.97%)
  62. (0.00002) RY ( 9) C  2            s(  6.67%)p 4.82( 32.14%)d 9.17( 61.19%)
  63. (0.00573) RY ( 1) C  3            s(  7.24%)p12.40( 89.82%)d 0.41(  2.94%)
                                         0.0000  0.0179  0.2685  0.0114  0.7252
                                         0.0209  0.6026  0.0095  0.0923  0.0952
                                        -0.0486 -0.0332 -0.0148 -0.1290
  64. (0.00227) RY ( 2) C  3            s( 30.75%)p 2.15( 65.98%)d 0.11(  3.27%)
                                         0.0000  0.0074  0.5545  0.0026 -0.6227
                                        -0.0013  0.5174 -0.0027  0.0647 -0.0657
                                        -0.0386 -0.0243  0.1447  0.0735
  65. (0.00122) RY ( 3) C  3            s( 26.16%)p 1.80( 47.00%)d 1.03( 26.83%)
                                         0.0000 -0.0176  0.5112  0.0003  0.1334
                                        -0.0037 -0.4783  0.0058  0.4727 -0.2141
                                        -0.2233  0.3011  0.1365 -0.2516
  66. (0.00080) RY ( 4) C  3            s( 24.05%)p 2.99( 71.80%)d 0.17(  4.16%)
                                         0.0000  0.0005  0.4904 -0.0217  0.1760
                                         0.0057 -0.2702  0.0121 -0.7832 -0.0134
                                         0.0593 -0.0142  0.1299  0.1441
  67. (0.00024) RY ( 5) C  3            s(  2.55%)p 0.69(  1.76%)d37.50( 95.69%)
                                         0.0000 -0.0031  0.1597 -0.0043  0.0264
                                         0.0050 -0.0437  0.0006  0.1221  0.3211
                                        -0.1542  0.3497 -0.5545  0.6327
  68. (0.00017) RY ( 6) C  3            s(  4.27%)p 2.41( 10.28%)d20.03( 85.46%)
                                         0.0000 -0.0084  0.2064 -0.0019 -0.0246
                                         0.0166 -0.2135 -0.0038  0.2372  0.7434
                                         0.3739 -0.3639  0.1643 -0.0528
  69. (0.00012) RY ( 7) C  3            s(  4.03%)p 0.10(  0.42%)d23.69( 95.55%)
                                         0.0000 -0.0020  0.2008  0.0103 -0.0201
                                        -0.0093 -0.0400 -0.0112  0.0434 -0.3344
                                         0.6097 -0.1445 -0.6348 -0.2190
  70. (0.00002) RY ( 8) C  3            s(  0.39%)p14.49(  5.69%)d99.99( 93.92%)
  71. (0.00002) RY ( 9) C  3            s(  0.62%)p11.90(  7.34%)d99.99( 92.04%)
  72. (0.00451) RY ( 1) C  4            s(  6.42%)p13.02( 83.64%)d 1.55(  9.94%)
                                         0.0000  0.0243  0.2523 -0.0252 -0.6472
                                         0.0326  0.5403 -0.0073 -0.3518 -0.1981
                                        -0.1246 -0.0199 -0.1417 -0.1554
  73. (0.00175) RY ( 2) C  4            s( 15.61%)p 1.83( 28.64%)d 3.57( 55.75%)
                                         0.0000 -0.0066  0.3951  0.0108 -0.1419
                                        -0.0005 -0.5026 -0.0168 -0.1153  0.1530
                                        -0.4657 -0.5545  0.0696 -0.0704
  74. (0.00127) RY ( 3) C  4            s( 10.54%)p 5.48( 57.76%)d 3.01( 31.70%)
                                         0.0000  0.0026  0.3246 -0.0211  0.3367
                                        -0.0082  0.4236 -0.0040  0.5332 -0.2229
                                        -0.2519 -0.2636 -0.3102  0.1953
  75. (0.00088) RY ( 4) C  4            s(  1.35%)p65.35( 88.50%)d 7.49( 10.15%)
                                         0.0000 -0.0190  0.1148 -0.0274  0.6017
                                        -0.0284  0.2881  0.0059 -0.6621  0.2457
                                         0.0412 -0.1644 -0.0847 -0.0721
  76. (0.00049) RY ( 5) C  4            s( 23.84%)p 0.42(  9.96%)d 2.78( 66.21%)
                                         0.0000 -0.0007  0.4882 -0.0190  0.0934
                                        -0.0138  0.1924 -0.0035  0.2308  0.2336
                                         0.0093  0.2831  0.6284 -0.3639
  77. (0.00023) RY ( 6) C  4            s( 22.66%)p 0.25(  5.71%)d 3.16( 71.64%)
                                         0.0000 -0.0004  0.4760 -0.0095 -0.1546
                                        -0.0125 -0.1550  0.0074  0.0942  0.4002
                                         0.5773  0.0545 -0.4581  0.1005
  78. (0.00020) RY ( 7) C  4            s(  8.01%)p 0.60(  4.78%)d10.88( 87.21%)
                                         0.0000  0.0014  0.2831  0.0180 -0.0239
                                         0.0142 -0.0230  0.0028 -0.2149 -0.2375
                                         0.1252  0.0510  0.3970  0.7999
  79. (0.00002) RY ( 8) C  4            s(  6.35%)p 1.87( 11.86%)d12.87( 81.78%)
  80. (0.00001) RY ( 9) C  4            s(  5.28%)p 1.77(  9.32%)d16.17( 85.40%)
  81. (0.00449) RY ( 1) N  5            s( 18.09%)p 4.30( 77.71%)d 0.23(  4.20%)
                                         0.0000  0.0004  0.4253  0.0062 -0.1997
                                         0.0003 -0.0163  0.0288 -0.8579 -0.0008
                                        -0.1868  0.0005 -0.0729 -0.0428
  82. (0.00131) RY ( 2) N  5            s(  0.06%)p99.99( 68.63%)d99.99( 31.32%)
                                         0.0000  0.0235 -0.0042 -0.0004  0.7995
                                        -0.0005 -0.0270 -0.0073 -0.2150 -0.0192
                                        -0.1121  0.0185  0.5334  0.1239
  83. (0.00074) RY ( 3) N  5            s(  0.00%)p 1.00( 82.77%)d 0.21( 17.23%)
                                         0.0000  0.0002  0.0003  0.0003  0.0222
                                         0.0206  0.9090 -0.0003 -0.0224 -0.0637
                                        -0.0074 -0.4096  0.0106  0.0149
  84. (0.00018) RY ( 4) N  5            s(  0.01%)p 1.00(  3.79%)d25.40( 96.21%)
                                         0.0000  0.0000  0.0076 -0.0001  0.0039
                                        -0.0044  0.1945  0.0001 -0.0013 -0.8072
                                         0.0251  0.5552 -0.0351 -0.0188
  85. (0.00014) RY ( 5) N  5            s(  0.00%)p 1.00( 13.53%)d 6.39( 86.47%)
                                         0.0000 -0.0001  0.0009 -0.0007 -0.0082
                                        -0.0391 -0.3656  0.0008  0.0091 -0.5851
                                        -0.0024 -0.7223 -0.0048  0.0248
  86. (0.00012) RY ( 6) N  5            s( 60.28%)p 0.34( 20.21%)d 0.32( 19.51%)
                                         0.0000  0.0054  0.7764  0.0064  0.3547
                                        -0.0002 -0.0011 -0.0084  0.2760  0.0211
                                         0.2716 -0.0180 -0.3342 -0.0945
  87. (0.00002) RY ( 7) N  5            s( 15.96%)p 1.32( 21.10%)d 3.94( 62.94%)
  88. (0.00002) RY ( 8) N  5            s(  5.70%)p 1.11(  6.32%)d15.45( 87.98%)
  89. (0.00000) RY ( 9) N  5            s(  0.01%)p99.99(  6.10%)d99.99( 93.88%)
  90. (0.00450) RY ( 1) C  6            s(  6.45%)p12.95( 83.60%)d 1.54(  9.95%)
                                         0.0000  0.0242  0.2529 -0.0262 -0.6660
                                        -0.0319 -0.5309 -0.0060 -0.3298  0.2024
                                        -0.1319  0.0084 -0.1288 -0.1565
  91. (0.00175) RY ( 2) C  6            s( 15.78%)p 1.79( 28.23%)d 3.55( 55.99%)
[...]
  6 C                -0.3     -11.1      -5.1     -16.7      -0.0      -0.2
  7 H                -0.0      -0.1     -10.5      -7.1     -12.6      -9.2
  8 H                 0.0       0.5      -9.9      -1.4     -22.7       0.1
  9 H                -0.0       0.0      -0.2      -0.1      -0.2       0.6
 10 H                -0.0      -0.0       0.2      -0.2      -0.1       0.7
 11 H                -0.0      -0.0      -0.1      -0.0      -0.0      -0.3
 14 H                -0.0      -0.1      -0.2       0.1      -0.0      -0.0
 15 H                 0.0       0.5      -0.0       0.0      -0.0      -0.1

                     66        67        68        69        70        71   
                   0.00000   0.00000   0.00000   0.00000   0.00000   0.00000
                   0.00024   0.00017   0.00012   0.00002   0.00002   0.00451
                  --------  --------  --------  --------  --------  --------
  0 O                -0.2      -0.2       0.0      -0.0      -0.0      -0.2
  1 C                -2.7      -4.8      -2.0      -1.1      -0.9      -2.6
  2 C               110.3     119.3     112.3     114.9     109.6     -16.5
  3 C                -1.5      -1.7      -5.5      -1.3      -1.3     159.5
  4 N                -0.0       0.0       0.0      -0.0      -0.0      -3.4
  5 C                 0.0       0.0       0.1       0.0      -0.0     -14.7
  6 C                -0.6       0.2      -1.0      -0.0      -0.1       2.5
  7 H                -1.8      -7.6      -2.1      -4.6      -3.9      -0.0
  8 H                -3.4      -5.2      -1.8      -7.9      -3.4       0.0
  9 H                -0.0      -0.0      -0.0       0.1      -0.0     -15.1
 10 H                -0.0       0.1      -0.0       0.0       0.1      -9.4
 12 H                -0.0      -0.0      -0.0      -0.0      -0.0       0.3
 13 H                -0.0      -0.0      -0.0      -0.0      -0.0      -0.3

                     72        73        74        75        76        77   
                   0.00000   0.00000   0.00000   0.00000   0.00000   0.00000
                   0.00175   0.00127   0.00088   0.00049   0.00023   0.00020
                  --------  --------  --------  --------  --------  --------
  1 C                 0.0       0.3      -1.2      -0.4       0.9      -0.2
  2 C               -12.8     -22.1     -23.0     -23.6     -33.6      -1.6
  3 C               134.5     161.1     142.9     147.6     147.8     120.8
  4 N                -0.8     -25.8      -9.5     -12.8      -1.3      -5.4
  5 C                 0.7      -8.8      -0.5      -5.7      -1.8      -0.8
  6 C                -0.4       1.8       0.0       1.2       0.3       0.0
  7 H                -0.1      -0.2       0.6      -0.1       0.3       0.1
  8 H                 0.2      -0.2      -0.2       0.6       0.1      -0.0
  9 H               -10.4      -3.0      -3.2      -2.0      -5.8      -8.9
 10 H               -10.8      -2.5      -3.3      -4.4      -6.8      -3.4
 11 H                 0.1      -0.5      -2.6      -0.4      -0.0      -0.4
 12 H                -0.2       0.0      -0.1       0.1       0.0      -0.0
 13 H                -0.0      -0.0       0.0      -0.2      -0.0      -0.0

                     78        79        80        81        82        83   
                   0.00000   0.00000   0.00000   0.00000   0.00000   0.00000
                   0.00002   0.00001   0.00449   0.00131   0.00074   0.00018
                  --------  --------  --------  --------  --------  --------
  1 C                -0.4      -0.2       0.2       0.6       0.1       0.0
  2 C                -3.7      -1.8      -1.0      -2.0       0.4       0.1
  3 C               125.1     114.3      -6.5      -2.7     -21.9      -3.6
  4 N                -3.7      -2.0     116.1     119.8     144.4     107.5
  5 C                 0.3      -0.1      -6.6      -2.8     -21.8      -3.3
  6 C                -0.0       0.1      -1.0      -2.0       0.4       0.1
  7 H                -0.0       0.1      -0.1      -0.1      -0.0      -0.0
  9 H                -2.7      -3.9      -0.1      -0.0      -0.1      -0.0
 10 H               -14.9      -6.5      -0.1      -0.1       0.9       0.0
 11 H                -0.0       0.1      -0.6     -10.3      -3.1      -0.7
 12 H                 0.0      -0.0      -0.1      -0.0      -0.1      -0.0
 13 H                -0.0      -0.0      -0.1      -0.2       0.9       0.0

                     84        85        86        87        88        89   
                   0.00000   0.00000   0.00000   0.00000   0.00000   0.00000
                   0.00014   0.00012   0.00002   0.00002   0.00000   0.00450
                  --------  --------  --------  --------  --------  --------
  0 O                -0.0      -0.2      -0.0      -0.0      -0.0      -0.2
  1 C                 0.1       0.1       0.1       0.0      -0.1      -2.6
  2 C                 0.1      -0.8      -0.5      -0.2      -0.0       2.5
  3 C                -3.3     -17.5      -4.7      -1.5      -1.0     -14.7
  4 N               106.0     139.9     117.3     106.2     105.0      -3.4
  5 C                -3.3     -17.6      -4.7      -1.5      -1.0     159.6
  6 C                 0.1      -0.8      -0.5      -0.2      -0.0     -16.6
  7 H                 0.0      -0.1      -0.0      -0.0      -0.0      -0.0
  9 H                -0.1       0.4      -0.0       0.0      -0.0       0.3
 10 H                 0.2       0.0       0.1      -0.0      -0.0      -0.3
 11 H                 0.4      -3.6      -7.0      -2.7      -2.7      -0.0
 12 H                -0.1       0.4      -0.0       0.0      -0.0     -15.1
 13 H                 0.2       0.0       0.1      -0.0      -0.0      -9.4
 14 H                 0.0      -0.1      -0.0      -0.0      -0.0      -0.0

                     90        91        92        93        94        95   
                   0.00000   0.00000   0.00000   0.00000   0.00000   0.00000
                   0.00175   0.00126   0.00088   0.00049   0.00023   0.00020
                  --------  --------  --------  --------  --------  --------
  1 C                 0.0       0.3      -1.2      -0.4       0.9      -0.2
  2 C                -0.4       1.8       0.0       1.2       0.3       0.0
  3 C                 0.7      -8.8      -0.5      -5.8      -1.7      -0.8
  4 N                -0.8     -25.5      -9.5     -13.0      -1.3      -5.4
  5 C               134.6     160.6     142.9     147.8     146.9     121.5
  6 C               -13.0     -21.9     -23.0     -23.5     -33.4      -1.9
  9 H                -0.2       0.0      -0.1       0.1       0.0      -0.0
 10 H                -0.0      -0.0       0.0      -0.2      -0.0      -0.0
 11 H                 0.1      -0.5      -2.6      -0.4      -0.0      -0.4
 12 H               -10.4      -3.1      -3.1      -2.0      -5.4      -9.2
 13 H               -10.9      -2.4      -3.3      -4.4      -6.6      -3.6
 14 H                -0.1      -0.2       0.6      -0.1       0.3       0.1
 15 H                 0.2      -0.2      -0.2       0.6       0.1      -0.0

                     96        97        98        99       100       101   
                   0.00000   0.00000   0.00000   0.00000   0.00000   0.00000
                   0.00002   0.00001   0.00570   0.00226   0.00121   0.00079
                  --------  --------  --------  --------  --------  --------
  0 O                -0.0      -0.0      -1.7      -1.0      -0.0      -0.4
  1 C                -0.4      -0.2     -18.1     -98.5      -3.1      -7.7
  2 C                -0.0       0.1      -5.2     -16.7      -0.0      -0.1
  3 C                 0.3      -0.1       2.7       1.3      -0.2       1.1
  4 N                -3.7      -2.0      -2.7      -0.4      -0.1      -0.7
  5 C               125.3     114.2     -28.8     -10.1      -7.1     -77.5
  6 C                -3.7      -1.8     174.5     233.9     146.2     193.5
  7 H                -0.0      -0.0      -0.2       0.1      -0.0      -0.0
 11 H                -0.0       0.1      -0.1      -0.0      -0.0      -0.3
 12 H                -2.7      -3.9      -0.2      -0.1      -0.2       0.6
 13 H               -15.0      -6.5       0.2      -0.2      -0.1       0.7
 14 H                -0.0       0.1     -10.4      -7.1     -12.7      -9.2
 15 H                 0.0      -0.1      -9.9      -1.3     -22.6       0.1

                    102       103       104       105       106       107   
                   0.00000   0.00000   0.00000   0.00000   0.00000   0.00000
                   0.00024   0.00017   0.00012   0.00002   0.00002   0.00437
                  --------  --------  --------  --------  --------  --------
  0 O                -0.2      -0.2       0.0      -0.0      -0.0      -0.3
  1 C                -2.7      -4.9      -1.9      -1.1      -0.9       1.3
  2 C                -0.7       0.2      -1.0      -0.0      -0.1     -38.0
  3 C                 0.0       0.0       0.1       0.0      -0.0       0.5
  4 N                -0.0       0.0       0.0      -0.0      -0.0      -0.2
  5 C                -1.5      -1.7      -5.5      -1.3      -1.3       0.0
  6 C               110.3     119.5     112.3     114.8     109.7      -0.1
  7 H                 0.0      -0.0       0.0      -0.0      -0.0     138.0
  8 H                 0.0      -0.0       0.0      -0.0       0.0      -0.4
  9 H                -0.0      -0.0      -0.0      -0.0      -0.0      -0.6
 10 H                -0.0      -0.0      -0.0      -0.0      -0.0      -0.1
 12 H                -0.0      -0.0      -0.0       0.1      -0.0      -0.0
 13 H                -0.0       0.1      -0.0       0.0       0.1      -0.0
 14 H                -1.8      -7.6      -2.1      -4.6      -4.0      -0.0
 15 H                -3.4      -5.3      -1.8      -7.8      -3.5      -0.0

                    108       109       110       111       112       113   
                   0.00000   0.00000   0.00000   0.00000   0.00000   0.00000
                   0.00013   0.00008   0.00003   0.00407   0.00014   0.00013
                  --------  --------  --------  --------  --------  --------
  0 O                -0.2      -0.0      -0.0      -0.1      -0.2      -0.1
  1 C                -0.3      -0.2      -0.2       0.3      -0.4      -0.1
  2 C                -3.0      -3.7      -7.8     -34.3      -2.8      -3.9
  3 C                -0.2      -0.1      -0.3       0.3      -0.2      -0.1
  6 C                -0.0      -0.0      -0.0       0.1      -0.2      -0.1
  7 H               104.3     104.7     108.3      -0.4      -0.4      -0.6
  8 H                -0.4      -0.5       0.0     135.6     104.4     105.1
 10 H                -0.1      -0.0       0.0      -0.6      -0.1      -0.0
 15 H                -0.0      -0.0      -0.0      -0.9      -0.0      -0.0

                    114       115       116       117       118       119   
                   0.00000   0.00000   0.00000   0.00000   0.00000   0.00000
                   0.00003   0.00549   0.00012   0.00010   0.00002   0.00216
                  --------  --------  --------  --------  --------  --------
  0 O                -0.0      -0.1      -0.0      -0.0      -0.0      -0.1
  1 C                -0.1      -0.3      -0.0      -0.1      -0.1      -0.4
  2 C                -7.7       0.2      -0.0      -0.3      -0.2       0.8
  3 C                -0.2     -32.3      -4.3      -2.6      -6.8     -39.1
  4 N                -0.0       0.2      -0.1      -0.2      -0.4       0.8
  5 C                 0.0      -0.0      -0.0      -0.0      -0.1      -0.4
  6 C                -0.0      -0.0      -0.1      -0.0       0.0       0.1
  7 H                 0.1      -0.6      -0.0      -0.1      -0.0      -0.1
  8 H               108.1      -0.0      -0.1      -0.0      -0.0      -0.6
  9 H                -0.0     135.4     105.4     103.9     107.5      -0.5
 10 H                -0.0      -0.4      -0.7      -0.4       0.1     140.0
 11 H                -0.0      -0.1      -0.0      -0.1      -0.0      -0.5
 12 H                -0.0      -1.9      -0.0      -0.0      -0.0       0.0

                    120       121       122       123       124       125   
                   0.00000   0.00000   0.00000   0.00000   0.00000   0.00000
                   0.00013   0.00008   0.00003   0.00319   0.00078   0.00025
                  --------  --------  --------  --------  --------  --------
  2 C                 0.0      -0.4      -0.2      -0.3      -0.0      -0.0
  3 C                -4.0      -3.7      -6.6      -3.1      -0.1      -0.4
  4 N                -0.1      -0.2      -0.5      -5.3      -3.7      -3.2
  5 C                 0.0      -0.0      -0.0      -3.1      -0.1      -0.4
  6 C                -0.0      -0.0      -0.0      -0.3      -0.0      -0.0
  9 H                -0.6      -0.4       0.0      -0.1      -0.0      -0.0
 10 H               104.9     105.0     107.4      -0.5      -0.0      -0.1
 11 H                -0.1      -0.1      -0.0     113.2     104.2     104.4
 13 H                -0.0      -0.0      -0.0      -0.5      -0.0      -0.1

                    126       127       128       129       130       131   
                   0.00000   0.00000   0.00000   0.00000   0.00000   0.00000
                   0.00003   0.00550   0.00011   0.00010   0.00002   0.00217
                  --------  --------  --------  --------  --------  --------
  0 O                 0.0      -0.1      -0.0      -0.0      -0.0      -0.1
  1 C                -0.0      -0.3      -0.0      -0.1      -0.1      -0.4
  2 C                 0.0      -0.0      -0.1      -0.0       0.0       0.1
  3 C                -0.2      -0.0      -0.0      -0.0      -0.1      -0.4
  4 N                -5.4       0.2      -0.1      -0.2      -0.4       0.8
  5 C                -0.2     -32.3      -4.3      -2.6      -6.8     -39.1
  6 C                 0.0       0.2      -0.0      -0.3      -0.2       0.8
  9 H                -0.0      -1.9      -0.0      -0.0      -0.0       0.0
 11 H               105.8      -0.1      -0.0      -0.1      -0.0      -0.5
 12 H                -0.0     135.4     105.4     103.9     107.5      -0.5
 13 H                -0.0      -0.4      -0.7      -0.4       0.1     140.1
 14 H                -0.0      -0.6      -0.0      -0.1      -0.0      -0.1
 15 H                -0.0      -0.0      -0.1      -0.0      -0.0      -0.6

                    132       133       134       135       136       137   
                   0.00000   0.00000   0.00000   0.00000   0.00000   0.00000
                   0.00013   0.00008   0.00003   0.00438   0.00013   0.00008
                  --------  --------  --------  --------  --------  --------
  0 O                -0.0      -0.0      -0.0      -0.3      -0.2      -0.0
  1 C                -0.0      -0.1      -0.0       1.2      -0.3      -0.2
  2 C                -0.0      -0.0      -0.0      -0.1      -0.0      -0.0
  4 N                -0.1      -0.2      -0.5      -0.2      -0.1      -0.0
  5 C                -4.0      -3.7      -6.6       0.5      -0.2      -0.1
  6 C                 0.0      -0.4      -0.2     -38.0      -3.0      -3.7
 11 H                -0.1      -0.1      -0.0      -0.0      -0.0      -0.0
 12 H                -0.6      -0.4       0.0      -0.6      -0.0      -0.0
 13 H               104.9     105.0     107.4      -0.1      -0.1      -0.0
 14 H                -0.0      -0.1      -0.0     138.0     104.3     104.7
 15 H                -0.1      -0.0       0.0      -0.4      -0.4      -0.5

                    138       139       140       141       142   
                   0.00000   0.00000   0.00000   0.00000   0.00000
                   0.00003   0.00406   0.00014   0.00013   0.00003
                  --------  --------  --------  --------  --------
  0 O                -0.0      -0.1      -0.2      -0.1      -0.0
  1 C                -0.2       0.3      -0.3      -0.1      -0.1
  2 C                -0.0       0.1      -0.2      -0.1      -0.0
  5 C                -0.3       0.3      -0.2      -0.1      -0.2
  6 C                -7.7     -34.3      -2.8      -3.9      -7.8
  8 H                -0.0      -0.9      -0.0      -0.0      -0.0
 13 H                 0.0      -0.6      -0.1      -0.0      -0.0
 14 H               108.3      -0.4      -0.4      -0.6       0.0
 15 H                 0.0     135.6     104.4     105.1     108.2

Storing NBOs: 6527.nbo
                                    *** NBOs were stored ***

                                *** returned from GENNBO program ***

-------
TIMINGS
-------

Total SCF time: 0 days 0 hours 0 min 6 sec 

Total time                  ....       6.248 sec
Sum of individual times     ....       6.758 sec  (108.2%)

Fock matrix formation       ....       4.210 sec  ( 67.4%)
  Coulomb formation         ....       2.240 sec  ( 53.2% of F)
  Split-RI-J                ....       2.232 sec  ( 53.0% of F)
  XC integration            ....       1.965 sec  ( 46.7% of F)
    Basis function eval.    ....       0.663 sec  ( 33.8% of XC)
    Density eval.           ....       0.363 sec  ( 18.5% of XC)
    XC-Functional eval.     ....       0.109 sec  (  5.6% of XC)
    XC-Potential eval.      ....       0.772 sec  ( 39.3% of XC)
Diagonalization             ....       0.030 sec  (  0.5%)
Density matrix formation    ....       0.003 sec  (  0.1%)
Population analysis         ....       1.394 sec  ( 22.3%)
Initial guess               ....       0.390 sec  (  6.2%)
Orbital Transformation      ....       0.000 sec  (  0.0%)
Orbital Orthonormalization  ....       0.000 sec  (  0.0%)
DIIS solution               ....       0.007 sec  (  0.1%)
SOSCF solution              ....       0.016 sec  (  0.3%)
Grid generation             ....       0.708 sec  ( 11.3%)
           ************************************************************
           *              Shut down parallel processing               *
           ************************************************************

-------------------------   --------------------
FINAL SINGLE POINT ENERGY      -325.272176993697
-------------------------   --------------------


                            ***************************************
                            *     ORCA property calculations      *
                            ***************************************

                                    ---------------------
                                    Active property flags
                                    ---------------------
   (+) Dipole Moment


------------------------------------------------------------------------------
                       ORCA ELECTRIC PROPERTIES CALCULATION
------------------------------------------------------------------------------

Dipole Moment Calculation                       ... on
Quadrupole Moment Calculation                   ... off
Polarizability Calculation                      ... off
GBWName                                         ... 6527.gbw
Electron density file                           ... 6527.scfp.tmp

-------------
DIPOLE MOMENT
-------------
                                X             Y             Z
Electronic contribution:     -3.67780       0.10385       2.06280
Nuclear contribution   :      4.78162      -0.13335      -2.60674
                        -----------------------------------------
Total Dipole Moment    :      1.10381      -0.02950      -0.54394
                        -----------------------------------------
Magnitude (a.u.)       :      1.23091
Magnitude (Debye)      :      3.12873


Timings for individual modules:

Sum of individual times         ...        7.451 sec (=   0.124 min)
GTO integral calculation        ...        0.480 sec (=   0.008 min)   6.4 %
SCF iterations                  ...        6.971 sec (=   0.116 min)  93.6 %
                             ****ORCA TERMINATED NORMALLY****
TOTAL RUN TIME: 0 days 0 hours 0 minutes 7 seconds 851 msec
