
                                 *****************
                                 * O   R   C   A *
                                 *****************

           --- An Ab Initio, DFT and Semiempirical electronic structure package ---

                  #######################################################
                  #                        -***-                        #
                  #  Department of molecular theory and spectroscopy    #
                  #              Directorship: Frank Neese              #
                  # Max Planck Institute for Chemical Energy Conversion #
                  #                  D-45470 Muelheim/Ruhr              #
                  #                       Germany                       #
                  #                                                     #
                  #                  All rights reserved                #
                  #                        -***-                        #
                  #######################################################


                         Program Version 3.0.3 - RELEASE   -


 With contributions from (in alphabetic order):
   Ute Becker             : Parallelization
   Dmytro Bykov           : SCF Hessian
   Dmitry Ganyushin       : Spin-Orbit,Spin-Spin,Magnetic field MRCI
   Andreas Hansen         : Spin unrestricted coupled pair/coupled cluster methods
   Dimitrios Liakos       : Extrapolation schemes; parallel MDCI
   Robert Izsak           : Overlap fitted RIJCOSX, COSX-SCS-MP3
   Christian Kollmar      : KDIIS, OOCD, Brueckner-CCSD(T), CCSD density
   Simone Kossmann        : Meta GGA functionals, TD-DFT gradient, OOMP2, MP2 Hessian
   Taras Petrenko         : DFT Hessian,TD-DFT gradient, ASA and ECA modules, normal mode analysis, Resonance Raman, ABS, FL, XAS/XES, NRVS
   Christoph Reimann      : Effective Core Potentials
   Michael Roemelt        : Restricted open shell CIS
   Christoph Riplinger    : Improved optimizer, TS searches, QM/MM, DLPNO-CCSD
   Barbara Sandhoefer     : DKH picture change effects
   Igor Schapiro          : Molecular dynamics
   Kantharuban Sivalingam : CASSCF convergence, NEVPT2
   Boris Wezisla          : Elementary symmetry handling
   Frank Wennmohs         : Technical directorship


 We gratefully acknowledge several colleagues who have allowed us to
 interface, adapt or use parts of their codes:
   Stefan Grimme, W. Hujo, H. Kruse, T. Risthaus : VdW corrections, initial TS optimization,
                                                   DFT functionals, gCP
   Ed Valeev                                     : LibInt (2-el integral package), F12 methods
   Garnet Chan, S. Sharma, R. Olivares           : DMRG
   Ulf Ekstrom                                   : XCFun DFT Library
   Mihaly Kallay                                 : mrcc  (arbitrary order and MRCC methods)
   Andreas Klamt, Michael Diedenhofen            : otool_cosmo (COSMO solvation model)
   Frank Weinhold                                : gennbo (NPA and NBO analysis)
   Christopher J. Cramer and Donald G. Truhlar   : smd solvation model


 Your calculation uses the libint2 library for the computation of 2-el integrals
 For citations please refer to: http://libint.valeyev.net

 This ORCA versions uses:
   CBLAS   interface :  Fast vector & matrix operations
   LAPACKE interface :  Fast linear algebra routines
   SCALAPACK package :  Parallel linear algebra routines


Your calculation utilizes the basis: Ahlrichs-VDZ
Cite in your paper:
H - Kr: A. Schaefer, H. Horn and R. Ahlrichs, J. Chem. Phys. 97, 2571 (1992).

Your calculation utilizes the basis: Ahlrichs SVPalls1+f
Cite in your paper:
Rb - Xe: A. Schaefer, C. Huber and R. Ahlrichs, J. Chem. Phys. 100, 5829 (1994).

================================================================================
                                        WARNINGS
                       Please study these warnings very carefully!
================================================================================
Now building the actual basis set


INFO   : the flag for use of LIBINT has been found!

================================================================================
                                       INPUT FILE
================================================================================
NAME = 6632.inp
|  1> ! RI PBE def2-SVP def2-SVP/J NBO PAL2
|  2> % maxcore 2000
|  3> % output
|  4>     # printlevel mini
|  5>     print[ P_Basis ] 0
|  6>     print[ P_SCFInfo ] 1
|  7>     print[ P_SCFIterInfo ] 1
|  8>     print[ P_OrbEn ] 0
|  9>     print[ P_Cartesian ] 0
| 10> end
| 11> *xyz 0 1
| 12>  O        1.4146910000     0.5580130000     0.3460610000 
| 13>  C        2.3491920000    -0.1533900000     0.1102240000 
| 14>  C        2.8813250000    -0.4172190000    -1.2720930000 
| 15>  C        4.3419300000     0.0711450000    -1.4826040000 
| 16>  C        4.6774190000    -1.4050170000    -1.7341470000 
| 17>  O        5.6509060000    -2.0260370000    -2.0394730000 
| 18>  N        3.3818670000    -1.7682840000    -1.4746410000 
| 19>  H        2.9130800000    -0.6690580000     0.9200400000 
| 20>  H        2.1700410000    -0.0644920000    -2.0222490000 
| 21>  H        4.8292570000     0.4915920000    -0.6017930000 
| 22>  H        4.4876150000     0.7285230000    -2.3380510000 
| 23>  H        2.9043650000    -2.6511850000    -1.5733630000 
| 24> *
| 25> 
| 26>                          ****END OF INPUT****
================================================================================

                       ****************************
                       * Single Point Calculation *
                       ****************************

--------------------------------
INTERNAL COORDINATES (ANGSTROEM)
--------------------------------
 O      0   0   0   0.000000     0.000     0.000
 C      1   0   0   1.197917     0.000     0.000
 C      2   1   0   1.504517   124.121     0.000
 C      3   2   1   1.554407   113.683   117.306
 C      4   3   2   1.534562    85.722   117.847
 O      5   4   3   1.194390   136.075   177.035
 N      5   4   3   1.370314    90.990   357.395
 H      2   1   3   1.113411   121.799   178.988
 H      3   2   1   1.092280   110.124   347.053
 H      4   3   2   1.090913   115.563     3.334
 H      4   3   2   1.088650   114.953   233.494
 H      7   5   4   1.008597   131.386   172.178

---------------------------
INTERNAL COORDINATES (A.U.)
---------------------------
 O      0   0   0   0.000000     0.000     0.000
 C      1   0   0   2.263735     0.000     0.000
 C      2   1   0   2.843125   124.121     0.000
 C      3   2   1   2.937404   113.683   117.306
 C      4   3   2   2.899902    85.722   117.847
 O      5   4   3   2.257069   136.075   177.035
 N      5   4   3   2.589519    90.990   357.395
 H      2   1   3   2.104043   121.799   178.988
 H      3   2   1   2.064110   110.124   347.053
 H      4   3   2   2.061527   115.563     3.334
 H      4   3   2   2.057251   114.953   233.494
 H      7   5   4   1.905973   131.386   172.178



           ************************************************************
           *        Program running with 2 parallel MPI-processes     *
           *              working on a common directory               *
           ************************************************************
------------------------------------------------------------------------------
                           ORCA GTO INTEGRAL CALCULATION
                           -- RI-GTO INTEGRALS CHOSEN --
------------------------------------------------------------------------------

                         BASIS SET STATISTICS AND STARTUP INFO

Gaussian basis set:
 # of primitive gaussian shells          ...  109
 # of primitive gaussian functions       ...  203
 # of contracted shells                  ...   57
 # of contracted basis functions         ...  123
 Highest angular momentum                ...    2
 Maximum contraction depth               ...    5
Auxiliary gaussian basis set:
 # of primitive gaussian shells          ...  208
 # of primitive gaussian functions       ...  570
 # of contracted shells                  ...  130
 # of contracted aux-basis functions     ...  398
 Highest angular momentum                ...    4
 Maximum contraction depth               ...    7
Ratio of auxiliary to basis functions    ...  3.24
Integral package used                  ... LIBINT
 One Electron integrals                  ... done
 Ordering auxiliary basis shells         ... done
 Integral threshhold             Thresh  ...  1.000e-10
 Primitive cut-off               TCut    ...  1.000e-11
 Pre-screening matrix                    ... done
 Shell pair data                         ... 
 Ordering of the shell pairs             ... done (   0.000 sec) 1593 of 1653 pairs
 Determination of significant pairs      ... done (   0.000 sec)
 Creation of shell pair data             ... done (   0.000 sec)
 Storage of shell pair data              ... done (   0.000 sec)
 Shell pair data done in (   0.001 sec)
 Computing two index integrals           ... done
 Cholesky decomposition of the V-matrix  ... done


Timings:
 Total evaluation time                   ...   0.152 sec (  0.003 min)
 One electron matrix time                ...   0.014 sec (  0.000 min) =  9.2%
 Schwartz matrix evaluation time         ...   0.070 sec (  0.001 min) = 46.1%
 Two index repulsion integral time       ...   0.007 sec (  0.000 min) =  4.6%
 Cholesky decomposition of V             ...   0.003 sec (  0.000 min) =  1.7%
 Three index repulsion integral time     ...   0.000 sec (  0.000 min) =  0.0%

           ************************************************************
           *              Shut down parallel processing               *
           ************************************************************


           ************************************************************
           *        Program running with 2 parallel MPI-processes     *
           *              working on a common directory               *
           ************************************************************
-------------------------------------------------------------------------------
                                 ORCA SCF
-------------------------------------------------------------------------------

------------
SCF SETTINGS
------------
Hamiltonian:
 Density Functional     Method          .... DFT(GTOs)
 Exchange Functional    Exchange        .... PBE
   PBE kappa parameter  XKappa          ....  0.804000
 Correlation Functional Correlation     .... PBE
 LDA part of GGA corr.  LDAOpt          .... PW91-LDA
 Gradients option       PostSCFGGA      .... off
   NL short-range parameter             ....  6.400000
 RI-approximation to the Coulomb term is turned on
   Number of auxiliary basis functions  .... 398


General Settings:
 Integral files         IntName         .... 6632
 Hartree-Fock type      HFTyp           .... RHF
 Total Charge           Charge          ....    0
 Multiplicity           Mult            ....    1
 Number of Electrons    NEL             ....   52
 Basis Dimension        Dim             ....  123
 Nuclear Repulsion      ENuc            ....    284.2226762845 Eh

Convergence Acceleration:
 DIIS                   CNVDIIS         .... on
   Start iteration      DIISMaxIt       ....    12
   Startup error        DIISStart       ....  0.200000
   # of expansion vecs  DIISMaxEq       ....     5
   Bias factor          DIISBfac        ....   1.050
   Max. coefficient     DIISMaxC        ....  10.000
 Newton-Raphson         CNVNR           .... off
 SOSCF                  CNVSOSCF        .... on
   Start iteration      SOSCFMaxIt      ....   150
   Startup grad/error   SOSCFStart      ....  0.003300
 Level Shifting         CNVShift        .... on
   Level shift para.    LevelShift      ....    0.2500
   Turn off err/grad.   ShiftErr        ....    0.0010
 Zerner damping         CNVZerner       .... off
 Static damping         CNVDamp         .... on
   Fraction old density DampFac         ....    0.7000
   Max. Damping (<1)    DampMax         ....    0.9800
   Min. Damping (>=0)   DampMin         ....    0.0000
   Turn off err/grad.   DampErr         ....    0.1000
 Fernandez-Rico         CNVRico         .... off

SCF Procedure:
 Maximum # iterations   MaxIter         ....   125
 SCF integral mode      SCFMode         .... Direct
   Integral package                     .... LIBINT
 Reset frequeny         DirectResetFreq ....    20
 Integral Threshold     Thresh          ....  1.000e-10 Eh
 Primitive CutOff       TCut            ....  1.000e-11 Eh

Convergence Tolerance:
 Convergence Check Mode ConvCheckMode   .... Total+1el-Energy
 Energy Change          TolE            ....  1.000e-06 Eh
 1-El. energy change                    ....  1.000e-03 Eh
 Orbital Gradient       TolG            ....  5.000e-05
 Orbital Rotation angle TolX            ....  5.000e-05
 DIIS Error             TolErr          ....  1.000e-06


Diagonalization of the overlap matrix:
Smallest eigenvalue                        ... 8.253e-04
Time for diagonalization                   ...    0.008 sec
Threshold for overlap eigenvalues          ... 1.000e-08
Number of eigenvalues below threshold      ... 0
Time for construction of square roots      ...    0.003 sec
Total time needed                          ...    0.011 sec

-------------------
DFT GRID GENERATION
-------------------

General Integration Accuracy     IntAcc      ...  4.340
Radial Grid Type                 RadialGrid  ... Gauss-Chebyshev
Angular Grid (max. acc.)         AngularGrid ... Lebedev-110
Angular grid pruning method      GridPruning ... 3 (G Style)
Weight generation scheme         WeightScheme... Becke
Basis function cutoff            BFCut       ...    1.0000e-10
Integration weight cutoff        WCut        ...    1.0000e-14
Grids for H and He will be reduced by one unit

# of grid points (after initial pruning)     ...  15728 (   0.0 sec)
# of grid points (after weights+screening)   ...  14809 (   0.0 sec)
nearest neighbour list constructed           ...    0.0 sec
Grid point re-assignment to atoms done       ...    0.0 sec
Grid point division into batches done        ...    0.0 sec
Reduced shell lists constructed in    0.1 sec

Total number of grid points                  ...    14809
Total number of batches                      ...      238
Average number of points per batch           ...       62
Average number of grid points per atom       ...     1234
Average number of shells per batch           ...    42.65 (74.82%)
Average number of basis functions per batch  ...    91.48 (74.38%)
Average number of large shells per batch     ...    34.78 (81.56%)
Average number of large basis fcns per batch ...    73.75 (80.62%)
Maximum spatial batch extension              ...  16.57, 18.89, 17.60 au
Average spatial batch extension              ...   1.58,  1.75,  1.59 au

Time for grid setup =    0.115 sec

------------------------------
INITIAL GUESS: MODEL POTENTIAL
------------------------------
Loading Hartree-Fock densities                     ... done
Calculating cut-offs                               ... done
Setting up the integral package                    ... done
Initializing the effective Hamiltonian             ... done
Starting the Coulomb interaction                   ... done (   0.0 sec)
Reading the grid                                   ... done
Mapping shells                                     ... done
Starting the XC term evaluation                    ... done (   0.1 sec)
  promolecular density results
     # of electrons  =     51.996035777
     EX              =    -44.775888222
     EC              =     -1.741381871
     EX+EC           =    -46.517270093
Transforming the Hamiltonian                       ... done (   0.0 sec)
Diagonalizing the Hamiltonian                      ... done (   0.0 sec)
Back transforming the eigenvectors                 ... done (   0.0 sec)
Now organizing SCF variables                       ... done
                      ------------------
                      INITIAL GUESS DONE (   0.3 sec)
                      ------------------
--------------
SCF ITERATIONS
--------------
ITER       Energy         Delta-E        Max-DP      RMS-DP      [F,P]     Damp
               ***  Starting incremental Fock matrix formation  ***
  0   -359.7383578496   0.000000000000 0.26666431  0.00547518  0.2463051 0.7000
  1   -359.8400904738  -0.101732624183 0.14493418  0.00317903  0.0725892 0.7000
                               ***Turning on DIIS***
  2   -359.8658609194  -0.025770445574 0.08370802  0.00336982  0.0272955 0.0000
  3   -359.9251087407  -0.059247821322 0.10579839  0.00228908  0.0464540 0.0000
  4   -359.9319840767  -0.006875335976 0.01332404  0.00058323  0.0309458 0.0000
  5   -359.9342994323  -0.002315355660 0.00423882  0.00016799  0.0044564 0.0000
                      *** Initiating the SOSCF procedure ***
                           *** Shutting down DIIS ***
                      *** Re-Reading the Fockian *** 
                      *** Removing any level shift *** 
ITER      Energy       Delta-E        Grad      Rot      Max-DP    RMS-DP
  6   -359.93437732  -0.0000778909  0.000361  0.000361  0.003224  0.000074
               *** Restarting incremental Fock matrix formation ***
  7   -359.93438787  -0.0000105432  0.000117  0.000435  0.001104  0.000044
  8   -359.93438694   0.0000009275  0.000394  0.000609  0.000725  0.000019
  9   -359.93438858  -0.0000016423  0.000141  0.000326  0.000529  0.000020
 10   -359.93438815   0.0000004352  0.000185  0.000187  0.000325  0.000012
 11   -359.93438876  -0.0000006183  0.000029  0.000084  0.000382  0.000008
 12   -359.93438871   0.0000000512  0.000064  0.000083  0.000312  0.000005
 13   -359.93438877  -0.0000000602  0.000018  0.000046  0.000095  0.000003
                 **** Energy Check signals convergence ****
              ***Rediagonalizing the Fockian in SOSCF/NRSCF***

               *****************************************************
               *                     SUCCESS                       *
               *           SCF CONVERGED AFTER  14 CYCLES          *
               *****************************************************

Setting up the final grid:

General Integration Accuracy     IntAcc      ...  4.670
Radial Grid Type                 RadialGrid  ... Gauss-Chebyshev
Angular Grid (max. acc.)         AngularGrid ... Lebedev-302
Angular grid pruning method      GridPruning ... 3 (G Style)
Weight generation scheme         WeightScheme... Becke
Basis function cutoff            BFCut       ...    1.0000e-10
Integration weight cutoff        WCut        ...    1.0000e-14
Grids for H and He will be reduced by one unit

# of grid points (after initial pruning)     ...  60454 (   0.0 sec)
# of grid points (after weights+screening)   ...  56138 (   0.1 sec)
nearest neighbour list constructed           ...    0.0 sec
Grid point re-assignment to atoms done       ...    0.0 sec
Grid point division into batches done        ...    0.2 sec
Reduced shell lists constructed in    0.4 sec

Total number of grid points                  ...    56138
Total number of batches                      ...      883
Average number of points per batch           ...       63
Average number of grid points per atom       ...     4678
Average number of shells per batch           ...    40.11 (70.36%)
Average number of basis functions per batch  ...    85.74 (69.70%)
Average number of large shells per batch     ...    32.35 (80.66%)
Average number of large basis fcns per batch ...    68.21 (79.56%)
Maximum spatial batch extension              ...  16.94, 16.41, 16.52 au
Average spatial batch extension              ...   1.09,  1.12,  1.11 au

Final grid set up in    0.4 sec
Final integration                            ... done (   0.3 sec)
Change in XC energy                          ...     0.000346889
Integrated number of electrons               ...    51.999931115
Previous integrated no of electrons          ...    51.999812047

----------------
TOTAL SCF ENERGY
----------------

Total Energy       :         -359.93404187 Eh           -9794.30321 eV

Components:
Nuclear Repulsion  :          284.22267628 Eh            7734.09222 eV
Electronic Energy  :         -644.15671815 Eh          -17528.39543 eV

One Electron Energy:        -1052.74710277 Eh          -28646.70504 eV
Two Electron Energy:          408.59038462 Eh           11118.30961 eV

Virial components:
Potential Energy   :         -717.04699265 Eh          -19511.84063 eV
Kinetic Energy     :          357.11295078 Eh            9717.53742 eV
Virial Ratio       :            2.00789972


DFT components:
N(Alpha)           :       25.999965557466 electrons
N(Beta)            :       25.999965557466 electrons
N(Total)           :       51.999931114931 electrons
E(X)               :      -45.464324549721 Eh       
E(C)               :       -1.758985762350 Eh       
E(XC)              :      -47.223310312071 Eh       

---------------
SCF CONVERGENCE
---------------

  Last Energy change         ...    1.5366e-08  Tolerance :   1.0000e-06
  Last MAX-Density change    ...    5.9571e-05  Tolerance :   1.0000e-05
  Last RMS-Density change    ...    1.9842e-06  Tolerance :   1.0000e-06
  Last Orbital Gradient      ...    3.2372e-05  Tolerance :   5.0000e-05
  Last Orbital Rotation      ...    3.1664e-05  Tolerance :   5.0000e-05

             **** THE GBW FILE WAS UPDATED (6632.gbw) ****
             **** DENSITY FILE WAS UPDATED (6632.scfp.tmp) ****
             **** ENERGY FILE WAS UPDATED (6632.en.tmp) ****

                    ********************************
                    * MULLIKEN POPULATION ANALYSIS *
                    ********************************

-----------------------
MULLIKEN ATOMIC CHARGES
-----------------------
   0 O :   -0.138881
   1 C :    0.155164
   2 C :   -0.005579
   3 C :   -0.011047
   4 C :    0.086882
   5 O :   -0.147427
   6 N :   -0.179427
   7 H :   -0.018633
   8 H :    0.031779
   9 H :    0.049627
  10 H :    0.065928
  11 H :    0.111613
Sum of atomic charges:   -0.0000000

--------------------------------
MULLIKEN REDUCED ORBITAL CHARGES
--------------------------------
  0 O s       :     3.749740  s :     3.749740
      pz      :     1.766343  p :     4.370660
      px      :     1.308097
      py      :     1.296221
      dz2     :     0.002154  d :     0.018480
      dxz     :     0.003096
      dyz     :     0.001937
      dx2y2   :     0.005718
      dxy     :     0.005577
  1 C s       :     3.151493  s :     3.151493
      pz      :     0.952337  p :     2.610013
      px      :     0.835423
      py      :     0.822254
      dz2     :     0.013073  d :     0.083329
      dxz     :     0.026436
      dyz     :     0.015892
      dx2y2   :     0.014925
      dxy     :     0.013002
  2 C s       :     3.111404  s :     3.111404
      pz      :     1.034205  p :     2.840298
      px      :     1.002611
      py      :     0.803481
      dz2     :     0.009558  d :     0.053877
      dxz     :     0.010341
      dyz     :     0.011569
      dx2y2   :     0.012616
      dxy     :     0.009793
  3 C s       :     2.987305  s :     2.987305
      pz      :     1.014919  p :     2.994681
      px      :     0.913658
      py      :     1.066104
      dz2     :     0.004453  d :     0.029061
      dxz     :     0.004461
      dyz     :     0.006298
      dx2y2   :     0.007815
      dxy     :     0.006035
  4 C s       :     3.065692  s :     3.065692
      pz      :     0.874830  p :     2.724315
      px      :     0.851949
      py      :     0.997537
      dz2     :     0.009786  d :     0.123110
      dxz     :     0.026211
      dyz     :     0.010032
      dx2y2   :     0.046215
      dxy     :     0.030866
  5 O s       :     3.708908  s :     3.708908
      pz      :     1.396945  p :     4.419759
      px      :     1.435244
      py      :     1.587570
      dz2     :     0.002384  d :     0.018761
      dxz     :     0.004360
      dyz     :     0.001904
      dx2y2   :     0.004566
      dxy     :     0.005547
  6 N s       :     3.437690  s :     3.437690
      pz      :     1.604828  p :     3.720301
      px      :     1.108671
      py      :     1.006802
      dz2     :     0.002503  d :     0.021436
      dxz     :     0.002755
      dyz     :     0.002164
      dx2y2   :     0.006630
      dxy     :     0.007385
  7 H s       :     0.999410  s :     0.999410
      pz      :     0.009482  p :     0.019222
      px      :     0.004900
      py      :     0.004841
  8 H s       :     0.947242  s :     0.947242
      pz      :     0.008573  p :     0.020979
      px      :     0.008204
      py      :     0.004203
  9 H s       :     0.927214  s :     0.927214
      pz      :     0.010889  p :     0.023160
      px      :     0.006173
      py      :     0.006098
 10 H s       :     0.911037  s :     0.911037
      pz      :     0.010743  p :     0.023035
      px      :     0.004311
      py      :     0.007981
 11 H s       :     0.845849  s :     0.845849
      pz      :     0.011953  p :     0.042537
      px      :     0.010095
      py      :     0.020490


                     *******************************
                     * LOEWDIN POPULATION ANALYSIS *
                     *******************************

----------------------
LOEWDIN ATOMIC CHARGES
----------------------
   0 O :   -0.092802
   1 C :    0.075772
   2 C :   -0.003647
   3 C :   -0.037400
   4 C :    0.024818
   5 O :   -0.141592
   6 N :   -0.001259
   7 H :   -0.011487
   8 H :    0.028134
   9 H :    0.043532
  10 H :    0.047973
  11 H :    0.067959

-------------------------------
LOEWDIN REDUCED ORBITAL CHARGES
-------------------------------
  0 O s       :     3.547697  s :     3.547697
      pz      :     1.769362  p :     4.513004
      px      :     1.396616
      py      :     1.347026
      dz2     :     0.004192  d :     0.032101
      dxz     :     0.005441
      dyz     :     0.003290
      dx2y2   :     0.007368
      dxy     :     0.011811
  1 C s       :     2.906910  s :     2.906910
      pz      :     1.032667  p :     2.813997
      px      :     0.919055
      py      :     0.862275
      dz2     :     0.033622  d :     0.203321
      dxz     :     0.067613
      dyz     :     0.039792
      dx2y2   :     0.027515
      dxy     :     0.034780
  2 C s       :     2.862575  s :     2.862575
      pz      :     1.075949  p :     3.009232
      px      :     1.028587
      py      :     0.904696
      dz2     :     0.025886  d :     0.131840
      dxz     :     0.026985
      dyz     :     0.025240
      dx2y2   :     0.030672
      dxy     :     0.023057
  3 C s       :     2.869854  s :     2.869854
      pz      :     1.073479  p :     3.089118
      px      :     0.967825
      py      :     1.047814
      dz2     :     0.012301  d :     0.078427
      dxz     :     0.011353
      dyz     :     0.017826
      dx2y2   :     0.022763
      dxy     :     0.014184
  4 C s       :     2.832595  s :     2.832595
      pz      :     0.866385  p :     2.851235
      px      :     0.976503
      py      :     1.008346
      dz2     :     0.021986  d :     0.291353
      dxz     :     0.055931
      dyz     :     0.020039
      dx2y2   :     0.119903
      dxy     :     0.073494
  5 O s       :     3.536897  s :     3.536897
      pz      :     1.407039  p :     4.571998
      px      :     1.528204
      py      :     1.636755
      dz2     :     0.004266  d :     0.032697
      dxz     :     0.006577
      dyz     :     0.002876
      dx2y2   :     0.007646
      dxy     :     0.011332
  6 N s       :     3.085285  s :     3.085285
      pz      :     1.544414  p :     3.859633
      px      :     1.182114
      py      :     1.133105
      dz2     :     0.006043  d :     0.056341
      dxz     :     0.005917
      dyz     :     0.004276
      dx2y2   :     0.019385
      dxy     :     0.020721
  7 H s       :     0.944275  s :     0.944275
      pz      :     0.031528  p :     0.067211
      px      :     0.018471
      py      :     0.017212
  8 H s       :     0.901715  s :     0.901715
      pz      :     0.028782  p :     0.070151
      px      :     0.026586
      py      :     0.014784
  9 H s       :     0.884656  s :     0.884656
      pz      :     0.032628  p :     0.071812
      px      :     0.018806
      py      :     0.020378
 10 H s       :     0.880051  s :     0.880051
      pz      :     0.031971  p :     0.071977
      px      :     0.013578
      py      :     0.026428
 11 H s       :     0.804060  s :     0.804060
      pz      :     0.037862  p :     0.127981
      px      :     0.030555
      py      :     0.059564


                      *****************************
                      * MAYER POPULATION ANALYSIS *
                      *****************************

  NA   - Mulliken gross atomic population
  ZA   - Total nuclear charge
  QA   - Mulliken gross atomic charge
  VA   - Mayer's total valence
  BVA  - Mayer's bonded valence
  FA   - Mayer's free valence

  ATOM       NA         ZA         QA         VA         BVA        FA
  0 O      8.1389     8.0000    -0.1389     2.3145     2.3145    -0.0000
  1 C      5.8448     6.0000     0.1552     4.0832     4.0832    -0.0000
  2 C      6.0056     6.0000    -0.0056     3.8614     3.8614     0.0000
  3 C      6.0110     6.0000    -0.0110     3.8348     3.8348    -0.0000
  4 C      5.9131     6.0000     0.0869     4.3131     4.3131     0.0000
  5 O      8.1474     8.0000    -0.1474     2.4105     2.4105     0.0000
  6 N      7.1794     7.0000    -0.1794     3.1962     3.1962     0.0000
  7 H      1.0186     1.0000    -0.0186     0.9884     0.9884     0.0000
  8 H      0.9682     1.0000     0.0318     1.0003     1.0003     0.0000
  9 H      0.9504     1.0000     0.0496     0.9996     0.9996    -0.0000
 10 H      0.9341     1.0000     0.0659     0.9886     0.9886    -0.0000
 11 H      0.8884     1.0000     0.1116     1.0090     1.0090    -0.0000

  Mayer bond orders larger than 0.1
B(  0-O ,  1-C ) :   2.1969 B(  1-C ,  2-C ) :   0.9357 B(  1-C ,  7-H ) :   0.9172 
B(  2-C ,  3-C ) :   1.0442 B(  2-C ,  6-N ) :   0.9842 B(  2-C ,  8-H ) :   0.9062 
B(  3-C ,  4-C ) :   0.9290 B(  3-C ,  9-H ) :   0.9058 B(  3-C , 10-H ) :   0.9136 
B(  4-C ,  5-O ) :   2.1889 B(  4-C ,  6-N ) :   1.1516 B(  5-O ,  6-N ) :   0.1117 
B(  6-N , 11-H ) :   0.9449 


 *********************************** NBO 6.0 ***********************************
             N A T U R A L   A T O M I C   O R B I T A L   A N D
          N A T U R A L   B O N D   O R B I T A L   A N A L Y S I S
 ***************************** Kiya KiyaLu (100703) ****************************
  (c) Copyright 1996-2015 Board of Regents of the University of Wisconsin System
      on behalf of the Theoretical Chemistry Institute.  All rights reserved.

          Cite this program as:

          NBO 6.0.  E. D. Glendening, J. K. Badenhoop, A. E. Reed,
          J. E. Carpenter, J. A. Bohmann, C. M. Morales, C. R. Landis,
          and F. Weinhold (Theoretical Chemistry Institute, University
          of Wisconsin, Madison, WI, 2013); http://nbo6.chem.wisc.edu/

       /NPA    / : Natural Population Analysis
       /NBO    / : Natural Bond Orbital Analysis
       /AONBO  / : Write the AO to NBO transformation to lfn77
       /FILE   / : Set to 6632

 Filename set to 6632

 Job title:  *** NBO job generated by orca_scf

 Warning: MOs are non-orthogonal; program will continue

 Warning: -2457.23330 electrons reside outside the linearly independent MO space


 NATURAL POPULATIONS:  Natural atomic orbital occupancies

  NAO Atom No lang   Type(AO)    Occupancy      Energy
 -------------------------------------------------------
   1    O  1  s      Cor( 1s)     1.99974     -18.51960
   2    O  1  s      Val( 2s)     1.69337      -0.81742
   3    O  1  s      Ryd( 3s)     0.00195       1.36566
   4    O  1  px     Val( 2p)     1.49762      -0.27838
   5    O  1  px     Ryd( 3p)     0.00053       0.97447
   6    O  1  py     Val( 2p)     1.42585      -0.26615
   7    O  1  py     Ryd( 3p)     0.00059       0.96668
   8    O  1  pz     Val( 2p)     1.85423      -0.23036
   9    O  1  pz     Ryd( 3p)     0.00344       1.09168
  10    O  1  dxy    Ryd( 3d)     0.00233       3.01097
  11    O  1  dxz    Ryd( 3d)     0.00142       2.71824
  12    O  1  dyz    Ryd( 3d)     0.00087       2.64242
  13    O  1  dx2y2  Ryd( 3d)     0.00216       2.72283
  14    O  1  dz2    Ryd( 3d)     0.00096       2.70486

  15    C  2  s      Cor( 1s)     1.99933      -9.88101
  16    C  2  s      Val( 2s)     0.92553      -0.20048
  17    C  2  s      Ryd( 3s)     0.00913       0.48270
  18    C  2  px     Val( 2p)     0.80384      -0.07319
  19    C  2  px     Ryd( 3p)     0.01118       0.56950
  20    C  2  py     Val( 2p)     0.79302      -0.10678
  21    C  2  py     Ryd( 3p)     0.00684       0.52401
  22    C  2  pz     Val( 2p)     1.05121      -0.07081
  23    C  2  pz     Ryd( 3p)     0.00302       0.57112
  24    C  2  dxy    Ryd( 3d)     0.00122       2.18825
  25    C  2  dxz    Ryd( 3d)     0.00248       2.17412
  26    C  2  dyz    Ryd( 3d)     0.00149       2.02112
  27    C  2  dx2y2  Ryd( 3d)     0.00197       1.94626
  28    C  2  dz2    Ryd( 3d)     0.00137       2.15722

  29    C  3  s      Cor( 1s)     1.99903      -9.84895
  30    C  3  s      Val( 2s)     0.97489      -0.22150
  31    C  3  s      Ryd( 3s)     0.00195       0.78534
  32    C  3  px     Val( 2p)     1.10499      -0.11563
  33    C  3  px     Ryd( 3p)     0.00607       0.67914
  34    C  3  py     Val( 2p)     0.87297      -0.10709
  35    C  3  py     Ryd( 3p)     0.00341       0.54439
  36    C  3  pz     Val( 2p)     1.15212      -0.12087
  37    C  3  pz     Ryd( 3p)     0.00182       0.68275
  38    C  3  dxy    Ryd( 3d)     0.00088       2.07483
  39    C  3  dxz    Ryd( 3d)     0.00087       2.22005
  40    C  3  dyz    Ryd( 3d)     0.00119       1.95571
  41    C  3  dx2y2  Ryd( 3d)     0.00126       2.08855
  42    C  3  dz2    Ryd( 3d)     0.00103       2.14603

  43    C  4  s      Cor( 1s)     1.99904      -9.81484
  44    C  4  s      Val( 2s)     1.07337      -0.24405
  45    C  4  s      Ryd( 3s)     0.00153       0.86127
  46    C  4  px     Val( 2p)     1.02457      -0.11331
  47    C  4  px     Ryd( 3p)     0.00208       0.50853
  48    C  4  py     Val( 2p)     1.16413      -0.10792
  49    C  4  py     Ryd( 3p)     0.00307       0.47491
  50    C  4  pz     Val( 2p)     1.24331      -0.10297
  51    C  4  pz     Ryd( 3p)     0.00263       0.74800
  52    C  4  dxy    Ryd( 3d)     0.00068       2.02148
  53    C  4  dxz    Ryd( 3d)     0.00040       2.04894
  54    C  4  dyz    Ryd( 3d)     0.00058       2.25212
  55    C  4  dx2y2  Ryd( 3d)     0.00074       2.11062
  56    C  4  dz2    Ryd( 3d)     0.00062       2.16098

  57    C  5  s      Cor( 1s)     1.99931      -9.88929
  58    C  5  s      Val( 2s)     0.74801      -0.12989
  59    C  5  s      Ryd( 3s)     0.00685       0.46536
  60    C  5  px     Val( 2p)     0.76809       0.00859
  61    C  5  px     Ryd( 3p)     0.01636       0.49156
  62    C  5  py     Val( 2p)     0.92449      -0.05630
  63    C  5  py     Ryd( 3p)     0.01141       0.55864
  64    C  5  pz     Val( 2p)     0.83051      -0.12702
  65    C  5  pz     Ryd( 3p)     0.00370       0.48537
  66    C  5  dxy    Ryd( 3d)     0.00278       2.28200
  67    C  5  dxz    Ryd( 3d)     0.00294       2.01588
  68    C  5  dyz    Ryd( 3d)     0.00107       1.87463
  69    C  5  dx2y2  Ryd( 3d)     0.00402       2.34036
  70    C  5  dz2    Ryd( 3d)     0.00116       2.04502

  71    O  6  s      Cor( 1s)     1.99971     -18.48240
  72    O  6  s      Val( 2s)     1.67934      -0.78282
  73    O  6  s      Ryd( 3s)     0.00172       1.49561
  74    O  6  px     Val( 2p)     1.65576      -0.25370
  75    O  6  px     Ryd( 3p)     0.00105       1.04344
  76    O  6  py     Val( 2p)     1.73710      -0.22313
  77    O  6  py     Ryd( 3p)     0.00162       1.12333
  78    O  6  pz     Val( 2p)     1.46203      -0.22142
  79    O  6  pz     Ryd( 3p)     0.00079       1.03958
  80    O  6  dxy    Ryd( 3d)     0.00230       3.00239
  81    O  6  dxz    Ryd( 3d)     0.00175       2.75216
  82    O  6  dyz    Ryd( 3d)     0.00080       2.64252
  83    O  6  dx2y2  Ryd( 3d)     0.00224       2.83709
  84    O  6  dz2    Ryd( 3d)     0.00095       2.70424

  85    N  7  s      Cor( 1s)     1.99914     -13.89646
  86    N  7  s      Val( 2s)     1.28820      -0.49769
  87    N  7  s      Ryd( 3s)     0.00220       1.06044
  88    N  7  px     Val( 2p)     1.34126      -0.24654
  89    N  7  px     Ryd( 3p)     0.00169       0.95282
  90    N  7  py     Val( 2p)     1.35851      -0.24659
  91    N  7  py     Ryd( 3p)     0.00287       1.15532
  92    N  7  pz     Val( 2p)     1.66223      -0.23879
  93    N  7  pz     Ryd( 3p)     0.00345       0.82943
  94    N  7  dxy    Ryd( 3d)     0.00097       2.63581
  95    N  7  dxz    Ryd( 3d)     0.00041       2.23925
  96    N  7  dyz    Ryd( 3d)     0.00038       2.26735
  97    N  7  dx2y2  Ryd( 3d)     0.00093       2.63438
  98    N  7  dz2    Ryd( 3d)     0.00068       2.44988

  99    H  8  s      Val( 1s)     0.87025      -0.00524
 100    H  8  s      Ryd( 2s)     0.00658       0.32279
 101    H  8  px     Ryd( 2p)     0.00026       1.82306
 102    H  8  py     Ryd( 2p)     0.00026       1.74511
 103    H  8  pz     Ryd( 2p)     0.00069       1.99266

 104    H  9  s      Val( 1s)     0.75776       0.05580
 105    H  9  s      Ryd( 2s)     0.00538       0.28791
 106    H  9  px     Ryd( 2p)     0.00046       1.96942
 107    H  9  py     Ryd( 2p)     0.00018       1.75895
 108    H  9  pz     Ryd( 2p)     0.00052       1.99018

 109    H 10  s      Val( 1s)     0.74942       0.04531
 110    H 10  s      Ryd( 2s)     0.00208       0.30979
 111    H 10  px     Ryd( 2p)     0.00027       1.78284
 112    H 10  py     Ryd( 2p)     0.00021       1.82198
 113    H 10  pz     Ryd( 2p)     0.00061       2.09273

 114    H 11  s      Val( 1s)     0.74200       0.05335
 115    H 11  s      Ryd( 2s)     0.00169       0.29771
 116    H 11  px     Ryd( 2p)     0.00011       1.68899
 117    H 11  py     Ryd( 2p)     0.00035       1.93009
 118    H 11  pz     Ryd( 2p)     0.00061       2.07684

 119    H 12  s      Val( 1s)     0.58720       0.06246
 120    H 12  s      Ryd( 2s)     0.00444       0.32143
 121    H 12  px     Ryd( 2p)     0.00037       1.90653
 122    H 12  py     Ryd( 2p)     0.00110       2.21925
 123    H 12  pz     Ryd( 2p)     0.00047       1.66617


 Summary of Natural Population Analysis:

                                     Natural Population
             Natural    ---------------------------------------------
  Atom No    Charge        Core      Valence    Rydberg      Total
 --------------------------------------------------------------------
    O  1   -0.48507      1.99974     6.47107    0.01426     8.48507
    C  2    0.38837      1.99933     3.57360    0.03870     5.61163
    C  3   -0.12249      1.99903     4.10497    0.01849     6.12249
    C  4   -0.51675      1.99904     4.50538    0.01234     6.51675
    C  5    0.67929      1.99931     3.27111    0.05029     5.32071
    O  6   -0.54716      1.99971     6.53425    0.01321     8.54716
    N  7   -0.66293      1.99914     5.65020    0.01359     7.66293
    H  8    0.12196      0.00000     0.87025    0.00779     0.87804
    H  9    0.23570      0.00000     0.75776    0.00654     0.76430
    H 10    0.24741      0.00000     0.74942    0.00317     0.75259
    H 11    0.25525      0.00000     0.74200    0.00275     0.74475
    H 12    0.40641      0.00000     0.58720    0.00639     0.59359
 ====================================================================
 * Total *  0.00000     13.99530    37.81719    0.18751    52.00000

                                 Natural Population
 ---------------------------------------------------------
   Core                      13.99530 ( 99.9664% of   14)
   Valence                   37.81719 ( 99.5189% of   38)
   Natural Minimal Basis     51.81249 ( 99.6394% of   52)
   Natural Rydberg Basis      0.18751 (  0.3606% of   52)
 ---------------------------------------------------------

    Atom No         Natural Electron Configuration
 ----------------------------------------------------------------------------
      O  1      [core]2s( 1.69)2p( 4.78)3d( 0.01)
      C  2      [core]2s( 0.93)2p( 2.65)3s( 0.01)3p( 0.02)3d( 0.01)
      C  3      [core]2s( 0.97)2p( 3.13)3p( 0.01)3d( 0.01)
      C  4      [core]2s( 1.07)2p( 3.43)3p( 0.01)
      C  5      [core]2s( 0.75)2p( 2.52)3s( 0.01)3p( 0.03)3d( 0.01)
      O  6      [core]2s( 1.68)2p( 4.85)3d( 0.01)
      N  7      [core]2s( 1.29)2p( 4.36)3p( 0.01)
      H  8            1s( 0.87)2s( 0.01)
      H  9            1s( 0.76)2s( 0.01)
      H 10            1s( 0.75)
      H 11            1s( 0.74)
      H 12            1s( 0.59)


 NATURAL BOND ORBITAL ANALYSIS:

                            Occupancies       Lewis Structure    Low   High
         Max    Occ     -------------------  -----------------   occ   occ
  Cycle  Ctr   Thresh    Lewis   non-Lewis     CR  BD  nC  LP    (L)   (NL)
 ============================================================================
    1     2     1.90    48.40012   3.59988      7  11   0   7     6      5
    2     2     1.89    48.92349   3.07651      7  12   0   6     5      5
    3     2     1.87    48.92349   3.07651      7  14   0   4     4      5
    4     2     1.86    50.73265   1.26735      7  16   0   3     1      2
    5     2     1.79    50.74435   1.25565      7  14   0   5     1      1
    6     2     1.74    50.74435   1.25565      7  14   0   5     1      1
    7     2     1.68    51.02351   0.97649      7  14   0   5     0      1
 ----------------------------------------------------------------------------

 Structure accepted: No low occupancy Lewis orbitals

 -------------------------------------------------------
   Core                     13.99530 ( 99.966% of  14)
   Valence Lewis            37.02822 ( 97.443% of  38)
  ==================      =============================
   Total Lewis              51.02351 ( 98.122% of  52)
  -----------------------------------------------------
   Valence non-Lewis         0.84734 (  1.629% of  52)
   Rydberg non-Lewis         0.12915 (  0.248% of  52)
  ==================      =============================
   Total non-Lewis           0.97649 (  1.878% of  52)
 -------------------------------------------------------


     (Occupancy)   Bond orbital / Coefficients / Hybrids
 ------------------ Lewis ------------------------------------------------------
   1. (1.99974) CR ( 1) O  1            s(100.00%)
                                         1.0000  0.0000  0.0000  0.0000  0.0000
                                         0.0000  0.0000  0.0000  0.0000  0.0000
                                         0.0000  0.0000  0.0000  0.0000
   2. (1.99933) CR ( 1) C  2            s(100.00%)
                                         1.0000  0.0000  0.0000  0.0000  0.0000
                                         0.0000  0.0000  0.0000  0.0000  0.0000
                                         0.0000  0.0000  0.0000  0.0000
   3. (1.99903) CR ( 1) C  3            s(100.00%)
                                         1.0000  0.0000  0.0000  0.0000  0.0000
                                         0.0000  0.0000  0.0000  0.0000  0.0000
                                         0.0000  0.0000  0.0000  0.0000
   4. (1.99904) CR ( 1) C  4            s(100.00%)
                                         1.0000  0.0000  0.0000  0.0000  0.0000
                                         0.0000  0.0000  0.0000  0.0000  0.0000
                                         0.0000  0.0000  0.0000  0.0000
   5. (1.99931) CR ( 1) C  5            s(100.00%)
                                         1.0000  0.0000  0.0000  0.0000  0.0000
                                         0.0000  0.0000  0.0000  0.0000  0.0000
                                         0.0000  0.0000  0.0000  0.0000
   6. (1.99971) CR ( 1) O  6            s(100.00%)
                                         1.0000  0.0000  0.0000  0.0000  0.0000
                                         0.0000  0.0000  0.0000  0.0000  0.0000
                                         0.0000  0.0000  0.0000  0.0000
   7. (1.99914) CR ( 1) N  7            s(100.00%)
                                         1.0000  0.0000  0.0000  0.0000  0.0000
                                         0.0000  0.0000  0.0000  0.0000  0.0000
                                         0.0000  0.0000  0.0000  0.0000
   8. (1.98180) LP ( 1) O  1            s( 55.77%)p 0.79( 44.20%)d 0.00(  0.04%)
                                         0.0000  0.7466 -0.0172 -0.5189  0.0027
                                         0.3949 -0.0019  0.1299 -0.0002  0.0165
                                         0.0048 -0.0031 -0.0045  0.0051
   9. (1.86738) LP ( 2) O  1            s(  0.01%)p 1.00( 99.88%)d 0.00(  0.11%)
                                         0.0000 -0.0034  0.0068  0.1170 -0.0006
                                        -0.1617  0.0024  0.9791 -0.0177 -0.0067
                                         0.0244 -0.0180 -0.0001 -0.0115
  10. (1.97494) LP ( 1) O  6            s( 54.69%)p 0.83( 45.28%)d 0.00(  0.03%)
                                         0.0000  0.7394 -0.0144  0.5546 -0.0046
                                        -0.3396  0.0026 -0.1728  0.0016  0.0123
                                         0.0071 -0.0042 -0.0065  0.0088
  11. (1.79111) LP ( 2) O  6            s(  0.00%)p 1.00( 99.87%)d 0.00(  0.13%)
                                         0.0000  0.0056 -0.0007 -0.5229  0.0062
                                        -0.8513  0.0103  0.0187  0.0000  0.0156
                                        -0.0054 -0.0075  0.0312  0.0003
  12. (1.68497) LP ( 1) N  7            s(  0.81%)p99.99( 99.17%)d 0.03(  0.02%)
                                         0.0000  0.0898 -0.0047  0.1607  0.0002
                                        -0.1602  0.0024  0.9694  0.0198  0.0008
                                         0.0083  0.0104  0.0029 -0.0052
  13. (1.99612) BD ( 1) O  1- C  2
               ( 66.62%)   0.8162* O  1 s( 44.03%)p 1.27( 55.77%)d 0.00(  0.20%)
                                         0.0000  0.6630  0.0288  0.5335  0.0144
                                        -0.5018 -0.0130 -0.1446 -0.0026 -0.0348
                                        -0.0118  0.0102  0.0065 -0.0219
               ( 33.38%)   0.5778* C  2 s( 31.68%)p 2.15( 68.11%)d 0.01(  0.21%)
                                         0.0000  0.5592  0.0632 -0.6855 -0.0500
                                         0.4265  0.0412  0.1545  0.0361 -0.0349
                                        -0.0126  0.0087  0.0135 -0.0222
  14. (1.98605) BD ( 2) O  1- C  2
               ( 64.42%)   0.8026* O  1 s(  0.26%)p99.99( 99.57%)d 0.68(  0.17%)
                                         0.0000  0.0507  0.0023  0.6555  0.0105
                                         0.7508  0.0111  0.0458  0.0006  0.0079
                                        -0.0043 -0.0076  0.0400 -0.0025
               ( 35.58%)   0.5965* C  2 s(  0.20%)p99.99( 99.53%)d 1.34(  0.27%)
                                         0.0000  0.0448  0.0021  0.5641 -0.0270
                                         0.8184 -0.0225  0.0777  0.0014 -0.0157
                                         0.0016  0.0082 -0.0487 -0.0005
  15. (1.98587) BD ( 1) C  2- C  3
               ( 47.19%)   0.6870* C  2 s( 36.82%)p 1.71( 63.13%)d 0.00(  0.05%)
                                         0.0000  0.6068  0.0024  0.2458 -0.0079
                                        -0.1323 -0.0030 -0.7438  0.0056 -0.0011
                                        -0.0110  0.0058  0.0008  0.0186
               ( 52.81%)   0.7267* C  3 s( 28.22%)p 2.54( 71.75%)d 0.00(  0.04%)
                                         0.0000  0.5312  0.0042 -0.3095 -0.0157
                                         0.1227  0.0050  0.7786 -0.0094  0.0002
                                        -0.0093  0.0034  0.0011  0.0171
  16. (1.98769) BD ( 1) C  2- H  8
               ( 58.40%)   0.7642* C  2 s( 31.34%)p 2.19( 68.62%)d 0.00(  0.04%)
                                         0.0000  0.5589 -0.0326  0.3803 -0.0214
                                        -0.3542  0.0132  0.6445  0.0077 -0.0058
                                         0.0153 -0.0125 -0.0001  0.0040
               ( 41.60%)   0.6450* H  8 s( 99.89%)p 0.00(  0.11%)
                                         0.9993 -0.0186 -0.0151  0.0147 -0.0251
  17. (1.93842) BD ( 1) C  3- C  4
               ( 51.49%)   0.7176* C  3 s( 24.08%)p 3.15( 75.87%)d 0.00(  0.05%)
                                         0.0000  0.4908 -0.0017  0.7538 -0.0229
                                         0.4231  0.0181 -0.1024 -0.0140  0.0072
                                        -0.0026  0.0027  0.0169 -0.0111
               ( 48.51%)   0.6965* C  4 s( 24.54%)p 3.07( 75.40%)d 0.00(  0.06%)
                                         0.0000  0.4954  0.0045 -0.8501 -0.0056
                                        -0.0976  0.0160  0.1462 -0.0079  0.0159
                                        -0.0052 -0.0015  0.0130 -0.0125
  18. (1.97195) BD ( 1) C  3- N  7
               ( 38.30%)   0.6189* C  3 s( 21.34%)p 3.68( 78.53%)d 0.01(  0.13%)
                                         0.0000  0.4618  0.0143  0.1678 -0.0275
                                        -0.8618 -0.0286 -0.1127 -0.0122 -0.0179
                                        -0.0045  0.0050 -0.0237 -0.0194
               ( 61.70%)   0.7855* N  7 s( 32.38%)p 2.09( 67.57%)d 0.00(  0.05%)
                                         0.0000  0.5691  0.0011 -0.4493  0.0288
                                         0.6745  0.0198  0.1331  0.0015 -0.0083
                                        -0.0027  0.0034 -0.0133 -0.0146
  19. (1.97635) BD ( 1) C  3- H  9
               ( 62.61%)   0.7913* C  3 s( 26.27%)p 2.81( 73.70%)d 0.00(  0.02%)
                                         0.0000  0.5125 -0.0071 -0.5537  0.0067
                                         0.2459 -0.0056 -0.6081  0.0086 -0.0041
                                         0.0118 -0.0059  0.0049  0.0044
               ( 37.39%)   0.6115* H  9 s( 99.88%)p 0.00(  0.12%)
                                         0.9994 -0.0093  0.0226 -0.0121  0.0235
  20. (1.96676) BD ( 1) C  4- C  5
               ( 53.08%)   0.7286* C  4 s( 24.46%)p 3.09( 75.49%)d 0.00(  0.05%)
                                         0.0000  0.4945 -0.0113  0.3480  0.0220
                                        -0.7774  0.0124 -0.1695 -0.0028 -0.0060
                                        -0.0005  0.0056 -0.0182 -0.0106
               ( 46.92%)   0.6850* C  5 s( 34.36%)p 1.91( 65.58%)d 0.00(  0.06%)
                                         0.0000  0.5856 -0.0259  0.0274  0.0422
                                         0.8026 -0.0084  0.0945 -0.0091 -0.0104
                                        -0.0011  0.0068 -0.0184 -0.0092
  21. (1.97281) BD ( 1) C  4- H 10
               ( 62.39%)   0.7899* C  4 s( 25.43%)p 2.93( 74.54%)d 0.00(  0.03%)
                                         0.0000  0.5043  0.0039  0.3758  0.0122
                                         0.3367  0.0150  0.7002 -0.0116  0.0035
                                         0.0109  0.0066  0.0008  0.0112
               ( 37.61%)   0.6133* H 10 s( 99.89%)p 0.00(  0.11%)
                                         0.9995 -0.0028 -0.0161 -0.0135 -0.0255
  22. (1.97117) BD ( 1) C  4- H 11
               ( 62.66%)   0.7916* C  4 s( 25.46%)p 2.93( 74.51%)d 0.00(  0.03%)
                                         0.0000  0.5045  0.0080  0.1176  0.0099
                                         0.5214  0.0113 -0.6776  0.0099  0.0017
                                        -0.0018 -0.0123 -0.0046  0.0103
               ( 37.34%)   0.6110* H 11 s( 99.89%)p 0.00(  0.11%)
                                         0.9995 -0.0018 -0.0052 -0.0202  0.0256
  23. (1.99738) BD ( 1) C  5- O  6
               ( 34.08%)   0.5838* C  5 s( 34.61%)p 1.88( 65.22%)d 0.00(  0.17%)
                                         0.0000  0.5865  0.0456  0.6506  0.0450
                                        -0.4276 -0.0319 -0.2071 -0.0154 -0.0315
                                        -0.0142  0.0099  0.0119 -0.0156
               ( 65.92%)   0.8119* O  6 s( 45.33%)p 1.20( 54.48%)d 0.00(  0.19%)
                                         0.0000  0.6728  0.0241 -0.6043 -0.0182
                                         0.3797  0.0109  0.1870  0.0052 -0.0326
                                        -0.0154  0.0096  0.0160 -0.0163
  24. (1.99411) BD ( 2) C  5- O  6
               ( 31.78%)   0.5638* C  5 s(  0.00%)p 1.00( 99.72%)d 0.00(  0.28%)
                                         0.0000 -0.0003  0.0015  0.2275 -0.0082
                                        -0.1209  0.0028  0.9641 -0.0359 -0.0118
                                         0.0372 -0.0262  0.0062 -0.0227
               ( 68.22%)   0.8259* O  6 s(  0.00%)p 1.00( 99.83%)d 0.00(  0.17%)
                                         0.0000  0.0016 -0.0010  0.2266  0.0027
                                        -0.1179 -0.0013  0.9659  0.0108  0.0089
                                        -0.0303  0.0193 -0.0052  0.0177
  25. (1.99018) BD ( 1) C  5- N  7
               ( 36.00%)   0.6000* C  5 s( 30.67%)p 2.26( 69.17%)d 0.00(  0.15%)
                                         0.0000  0.5538 -0.0047 -0.7207 -0.0129
                                        -0.3932 -0.0543  0.1209 -0.0017  0.0214
                                        -0.0105 -0.0040  0.0251 -0.0176
               ( 64.00%)   0.8000* N  7 s( 35.88%)p 1.79( 64.07%)d 0.00(  0.05%)
                                         0.0000  0.5990 -0.0026  0.7784 -0.0108
                                         0.0476  0.0330 -0.1769  0.0050  0.0093
                                        -0.0091 -0.0009  0.0133 -0.0123
  26. (1.99318) BD ( 1) N  7- H 12
               ( 71.67%)   0.8466* N  7 s( 30.69%)p 2.26( 69.28%)d 0.00(  0.03%)
                                         0.0000  0.5539  0.0117 -0.4064  0.0091
                                        -0.7188  0.0164 -0.1028 -0.0008  0.0119
                                         0.0012  0.0041 -0.0074 -0.0089
               ( 28.33%)   0.5323* H 12 s( 99.78%)p 0.00(  0.22%)
                                         0.9988 -0.0122  0.0212  0.0420  0.0040
 ---------------- non-Lewis ----------------------------------------------------
  27. (0.00631) BD*( 1) O  1- C  2
               ( 33.38%)   0.5778* O  1 s( 44.03%)p 1.27( 55.77%)d 0.00(  0.20%)
                                         0.0000 -0.6630 -0.0288 -0.5335 -0.0144
                                         0.5018  0.0130  0.1446  0.0026  0.0348
                                         0.0118 -0.0102 -0.0065  0.0219
               ( 66.62%)  -0.8162* C  2 s( 31.68%)p 2.15( 68.11%)d 0.01(  0.21%)
                                         0.0000 -0.5592 -0.0632  0.6855  0.0500
                                        -0.4265 -0.0412 -0.1545 -0.0361  0.0349
                                         0.0126 -0.0087 -0.0135  0.0222
  28. (0.05999) BD*( 2) O  1- C  2
               ( 35.58%)   0.5965* O  1 s(  0.26%)p99.99( 99.57%)d 0.68(  0.17%)
                                         0.0000 -0.0507 -0.0023 -0.6555 -0.0105
                                        -0.7508 -0.0111 -0.0458 -0.0006 -0.0079
                                         0.0043  0.0076 -0.0400  0.0025
               ( 64.42%)  -0.8026* C  2 s(  0.20%)p99.99( 99.53%)d 1.34(  0.27%)
                                         0.0000 -0.0448 -0.0021 -0.5641  0.0270
                                        -0.8184  0.0225 -0.0777 -0.0014  0.0157
                                        -0.0016 -0.0082  0.0487  0.0005
  29. (0.07524) BD*( 1) C  2- C  3
               ( 52.81%)   0.7267* C  2 s( 36.82%)p 1.71( 63.13%)d 0.00(  0.05%)
                                         0.0000  0.6068  0.0024  0.2458 -0.0079
                                        -0.1323 -0.0030 -0.7438  0.0056 -0.0011
                                        -0.0110  0.0058  0.0008  0.0186
               ( 47.19%)  -0.6870* C  3 s( 28.22%)p 2.54( 71.75%)d 0.00(  0.04%)
                                         0.0000  0.5312  0.0042 -0.3095 -0.0157
                                         0.1227  0.0050  0.7786 -0.0094  0.0002
                                        -0.0093  0.0034  0.0011  0.0171
  30. (0.07526) BD*( 1) C  2- H  8
               ( 41.60%)   0.6450* C  2 s( 31.34%)p 2.19( 68.62%)d 0.00(  0.04%)
                                         0.0000 -0.5589  0.0326 -0.3803  0.0214
                                         0.3542 -0.0132 -0.6445 -0.0077  0.0058
                                        -0.0153  0.0125  0.0001 -0.0040
               ( 58.40%)  -0.7642* H  8 s( 99.89%)p 0.00(  0.11%)
                                        -0.9993  0.0186  0.0151 -0.0147  0.0251
  31. (0.01475) BD*( 1) C  3- C  4
               ( 48.51%)   0.6965* C  3 s( 24.08%)p 3.15( 75.87%)d 0.00(  0.05%)
                                         0.0000 -0.4908  0.0017 -0.7538  0.0229
                                        -0.4231 -0.0181  0.1024  0.0140 -0.0072
                                         0.0026 -0.0027 -0.0169  0.0111
               ( 51.49%)  -0.7176* C  4 s( 24.54%)p 3.07( 75.40%)d 0.00(  0.06%)
                                         0.0000 -0.4954 -0.0045  0.8501  0.0056
                                         0.0976 -0.0160 -0.1462  0.0079 -0.0159
                                         0.0052  0.0015 -0.0130  0.0125
  32. (0.02591) BD*( 1) C  3- N  7
               ( 61.70%)   0.7855* C  3 s( 21.34%)p 3.68( 78.53%)d 0.01(  0.13%)
                                         0.0000  0.4618  0.0143  0.1678 -0.0275
                                        -0.8618 -0.0286 -0.1127 -0.0122 -0.0179
                                        -0.0045  0.0050 -0.0237 -0.0194
               ( 38.30%)  -0.6189* N  7 s( 32.38%)p 2.09( 67.57%)d 0.00(  0.05%)
                                         0.0000  0.5691  0.0011 -0.4493  0.0288
                                         0.6745  0.0198  0.1331  0.0015 -0.0083
                                        -0.0027  0.0034 -0.0133 -0.0146
  33. (0.03138) BD*( 1) C  3- H  9
               ( 37.39%)   0.6115* C  3 s( 26.27%)p 2.81( 73.70%)d 0.00(  0.02%)
                                         0.0000 -0.5125  0.0071  0.5537 -0.0067
                                        -0.2459  0.0056  0.6081 -0.0086  0.0041
                                        -0.0118  0.0059 -0.0049 -0.0044
               ( 62.61%)  -0.7913* H  9 s( 99.88%)p 0.00(  0.12%)
                                        -0.9994  0.0093 -0.0226  0.0121 -0.0235
  34. (0.09126) BD*( 1) C  4- C  5
               ( 46.92%)   0.6850* C  4 s( 24.46%)p 3.09( 75.49%)d 0.00(  0.05%)
                                         0.0000 -0.4945  0.0113 -0.3480 -0.0220
                                         0.7774 -0.0124  0.1695  0.0028  0.0060
                                         0.0005 -0.0056  0.0182  0.0106
               ( 53.08%)  -0.7286* C  5 s( 34.36%)p 1.91( 65.58%)d 0.00(  0.06%)
                                         0.0000 -0.5856  0.0259 -0.0274 -0.0422
                                        -0.8026  0.0084 -0.0945  0.0091  0.0104
                                         0.0011 -0.0068  0.0184  0.0092
  35. (0.01316) BD*( 1) C  4- H 10
               ( 37.61%)   0.6133* C  4 s( 25.43%)p 2.93( 74.54%)d 0.00(  0.03%)
                                         0.0000 -0.5043 -0.0039 -0.3758 -0.0122
                                        -0.3367 -0.0150 -0.7002  0.0116 -0.0035
                                        -0.0109 -0.0066 -0.0008 -0.0112
               ( 62.39%)  -0.7899* H 10 s( 99.89%)p 0.00(  0.11%)
                                        -0.9995  0.0028  0.0161  0.0135  0.0255
  36. (0.01095) BD*( 1) C  4- H 11
               ( 37.34%)   0.6110* C  4 s( 25.46%)p 2.93( 74.51%)d 0.00(  0.03%)
                                         0.0000 -0.5045 -0.0080 -0.1176 -0.0099
                                        -0.5214 -0.0113  0.6776 -0.0099 -0.0017
                                         0.0018  0.0123  0.0046 -0.0103
               ( 62.66%)  -0.7916* H 11 s( 99.89%)p 0.00(  0.11%)
                                        -0.9995  0.0018  0.0052  0.0202 -0.0256
  37. (0.02350) BD*( 1) C  5- O  6
               ( 65.92%)   0.8119* C  5 s( 34.61%)p 1.88( 65.22%)d 0.00(  0.17%)
                                         0.0000  0.5865  0.0456  0.6506  0.0450
                                        -0.4276 -0.0319 -0.2071 -0.0154 -0.0315
                                        -0.0142  0.0099  0.0119 -0.0156
               ( 34.08%)  -0.5838* O  6 s( 45.33%)p 1.20( 54.48%)d 0.00(  0.19%)
                                         0.0000  0.6728  0.0241 -0.6043 -0.0182
                                         0.3797  0.0109  0.1870  0.0052 -0.0326
                                        -0.0154  0.0096  0.0160 -0.0163
  38. (0.29312) BD*( 2) C  5- O  6
               ( 68.22%)   0.8259* C  5 s(  0.00%)p 1.00( 99.72%)d 0.00(  0.28%)
                                         0.0000 -0.0003  0.0015  0.2275 -0.0082
                                        -0.1209  0.0028  0.9641 -0.0359 -0.0118
                                         0.0372 -0.0262  0.0062 -0.0227
               ( 31.78%)  -0.5638* O  6 s(  0.00%)p 1.00( 99.83%)d 0.00(  0.17%)
                                         0.0000  0.0016 -0.0010  0.2266  0.0027
                                        -0.1179 -0.0013  0.9659  0.0108  0.0089
                                        -0.0303  0.0193 -0.0052  0.0177
  39. (0.09346) BD*( 1) C  5- N  7
               ( 64.00%)   0.8000* C  5 s( 30.67%)p 2.26( 69.17%)d 0.00(  0.15%)
                                         0.0000  0.5538 -0.0047 -0.7207 -0.0129
                                        -0.3932 -0.0543  0.1209 -0.0017  0.0214
                                        -0.0105 -0.0040  0.0251 -0.0176
               ( 36.00%)  -0.6000* N  7 s( 35.88%)p 1.79( 64.07%)d 0.00(  0.05%)
                                         0.0000  0.5990 -0.0026  0.7784 -0.0108
                                         0.0476  0.0330 -0.1769  0.0050  0.0093
                                        -0.0091 -0.0009  0.0133 -0.0123
  40. (0.03305) BD*( 1) N  7- H 12
               ( 28.33%)   0.5323* N  7 s( 30.69%)p 2.26( 69.28%)d 0.00(  0.03%)
                                         0.0000 -0.5539 -0.0117  0.4064 -0.0091
                                         0.7188 -0.0164  0.1028  0.0008 -0.0119
                                        -0.0012 -0.0041  0.0074  0.0089
               ( 71.67%)  -0.8466* H 12 s( 99.78%)p 0.00(  0.22%)
                                        -0.9988  0.0122 -0.0212 -0.0420 -0.0040
  41. (0.00306) RY ( 1) O  1            s(  0.79%)p99.99( 96.57%)d 3.36(  2.65%)
                                         0.0000  0.0001  0.0887 -0.0044 -0.0723
                                         0.0034  0.1760 -0.0119 -0.9640  0.0238
                                        -0.1231  0.0923  0.0026  0.0470
  42. (0.00021) RY ( 2) O  1            s( 65.71%)p 0.46( 30.45%)d 0.06(  3.83%)
                                         0.0000 -0.0166  0.8105 -0.0324  0.4245
                                         0.0246 -0.3502  0.0059 -0.0057 -0.0784
                                        -0.1044  0.0930  0.0381 -0.1056
  43. (0.00015) RY ( 3) O  1            s(  0.80%)p99.99( 94.26%)d 6.21(  4.94%)
                                         0.0000  0.0014  0.0892 -0.0144  0.5139
                                        -0.0180  0.8158 -0.0027  0.1120  0.0792
                                        -0.0342 -0.1219  0.1609 -0.0351
  44. (0.00006) RY ( 4) O  1            s( 31.45%)p 1.67( 52.66%)d 0.50( 15.88%)
  45. (0.00001) RY ( 5) O  1            s(  1.04%)p13.68( 14.17%)d81.82( 84.79%)
  46. (0.00000) RY ( 6) O  1            s(  0.03%)p99.99(  6.15%)d99.99( 93.82%)
  47. (0.00000) RY ( 7) O  1            s(  0.01%)p 1.00(  0.80%)d99.99( 99.19%)
  48. (0.00000) RY ( 8) O  1            s(  0.10%)p50.10(  4.94%)d99.99( 94.96%)
  49. (0.00000) RY ( 9) O  1            s(  0.01%)p54.76(  0.57%)d99.99( 99.42%)
  50. (0.01415) RY ( 1) C  2            s( 13.42%)p 6.38( 85.65%)d 0.07(  0.94%)
                                         0.0000 -0.0614  0.3611  0.0500 -0.7079
                                        -0.0403  0.5425 -0.0203  0.2377 -0.0231
                                         0.0755 -0.0463 -0.0191 -0.0253
  51. (0.00768) RY ( 2) C  2            s( 48.77%)p 0.12(  6.04%)d 0.93( 45.19%)
                                         0.0000 -0.0010  0.6984  0.0375  0.2096
                                        -0.0219 -0.0274  0.0300 -0.1137  0.1009
                                        -0.5243  0.3580  0.0450  0.1915
  52. (0.00302) RY ( 3) C  2            s(  4.55%)p14.75( 67.08%)d 6.24( 28.37%)
                                         0.0000 -0.0004  0.2133  0.0431  0.5903
                                         0.0190  0.4047 -0.0046  0.3953 -0.0414
                                         0.0979 -0.3347  0.2793 -0.2871
  53. (0.00165) RY ( 4) C  2            s(  7.81%)p 8.92( 69.68%)d 2.88( 22.51%)
                                         0.0000 -0.0126  0.2792  0.0050 -0.0823
                                        -0.0425 -0.5948 -0.0008  0.5782 -0.2413
                                         0.1734  0.1329 -0.2114 -0.2728
  54. (0.00056) RY ( 5) C  2            s( 11.84%)p 2.77( 32.83%)d 4.67( 55.33%)
                                         0.0000  0.0101  0.3439 -0.0033  0.1729
                                        -0.0219  0.1257 -0.0053 -0.5311 -0.3277
                                         0.4787  0.0037 -0.4361 -0.1632
  55. (0.00024) RY ( 6) C  2            s( 11.35%)p 2.66( 30.19%)d 5.15( 58.46%)
                                         0.0000  0.0074  0.3369  0.0132 -0.2081
                                         0.0119 -0.4017  0.0030 -0.3112  0.1923
                                         0.1963 -0.4646  0.5375 -0.0662
  56. (0.00017) RY ( 7) C  2            s(  1.91%)p 4.31(  8.22%)d47.15( 89.87%)
                                         0.0000  0.0071  0.1379 -0.0233  0.1438
                                         0.0122 -0.0353  0.0087  0.2440  0.2522
                                         0.3880 -0.1728 -0.2004  0.7839
  57. (0.00002) RY ( 8) C  2            s(  0.14%)p 1.68(  0.23%)d99.99( 99.63%)
  58. (0.00000) RY ( 9) C  2            s(  0.18%)p 3.98(  0.70%)d99.99( 99.12%)
  59. (0.00632) RY ( 1) C  3            s(  0.54%)p99.99( 93.70%)d10.73(  5.77%)
                                         0.0000 -0.0221  0.0699 -0.0240 -0.8510
                                         0.0009  0.4596 -0.0153  0.0249  0.1396
                                        -0.0805  0.1119 -0.1334 -0.0369
  60. (0.00281) RY ( 2) C  3            s( 44.74%)p 0.50( 22.37%)d 0.74( 32.89%)
                                         0.0000 -0.0058  0.6689 -0.0100  0.1430
                                         0.0015  0.1693 -0.0156 -0.4174 -0.1450
                                        -0.4012  0.2779  0.2434  0.1024
  61. (0.00136) RY ( 3) C  3            s( 24.56%)p 2.72( 66.77%)d 0.35(  8.67%)
                                         0.0000 -0.0054  0.4956  0.0035 -0.2420
                                         0.0247 -0.5299  0.0076  0.5724 -0.0874
                                         0.1053  0.1745  0.1179 -0.1537
  62. (0.00131) RY ( 4) C  3            s(  0.23%)p99.99( 83.13%)d73.06( 16.64%)
                                         0.0000  0.0165  0.0448  0.0053  0.2985
                                        -0.0284  0.6694  0.0071  0.5415 -0.2676
                                         0.1520  0.0624  0.2338 -0.1144
  63. (0.00108) RY ( 5) C  3            s(  6.36%)p 0.62(  3.93%)d14.12( 89.72%)
                                         0.0000 -0.0065  0.2520 -0.0081 -0.1278
                                         0.0030  0.0332  0.0061 -0.1473 -0.1626
                                         0.0570 -0.8492  0.2083 -0.3209
  64. (0.00039) RY ( 6) C  3            s(  1.12%)p 5.54(  6.22%)d82.42( 92.65%)
                                         0.0000  0.0114  0.1054  0.0060  0.0775
                                        -0.0331  0.0582 -0.0063  0.2273  0.7610
                                        -0.1143 -0.2232  0.3741  0.3803
  65. (0.00022) RY ( 7) C  3            s( 21.40%)p 0.38(  8.07%)d 3.30( 70.53%)
                                         0.0000  0.0075  0.4625  0.0041  0.2211
                                         0.0096  0.1588  0.0030 -0.0806  0.3160
                                         0.4805 -0.0319 -0.6085 -0.0569
  66. (0.00015) RY ( 8) C  3            s(  0.50%)p25.77( 12.86%)d99.99( 86.64%)
                                         0.0000  0.0059  0.0704  0.0133  0.0843
                                         0.0136  0.0108 -0.0068  0.3478 -0.1749
                                        -0.6115 -0.2983 -0.5429  0.2796
  67. (0.00009) RY ( 9) C  3            s(  0.64%)p 4.84(  3.11%)d99.99( 96.25%)
  68. (0.00325) RY ( 1) C  4            s( 22.57%)p 3.21( 72.55%)d 0.22(  4.88%)
                                         0.0000  0.0215  0.4746  0.0065 -0.2998
                                        -0.0109 -0.5298  0.0120  0.5955  0.1279
                                        -0.1461 -0.0357 -0.0984  0.0123
  69. (0.00240) RY ( 2) C  4            s(  2.81%)p32.14( 90.31%)d 2.45(  6.88%)
                                         0.0000  0.0096  0.1673  0.0003  0.0971
                                         0.0021 -0.6590 -0.0105 -0.6777  0.1841
                                         0.1508  0.0619 -0.0564 -0.0717
  70. (0.00104) RY ( 3) C  4            s(  7.48%)p11.19( 83.71%)d 1.18(  8.81%)
                                         0.0000 -0.0119  0.2733 -0.0165  0.8929
                                         0.0027 -0.0921  0.0073  0.1761 -0.2429
                                        -0.1532 -0.0082  0.0733  0.0157
  71. (0.00061) RY ( 4) C  4            s( 44.82%)p 0.46( 20.45%)d 0.77( 34.73%)
                                         0.0000 -0.0012  0.6694  0.0087 -0.2562
                                        -0.0096  0.2779 -0.0098 -0.2478 -0.4015
                                         0.0355  0.2559  0.3455 -0.0035
  72. (0.00034) RY ( 5) C  4            s(  1.13%)p 1.83(  2.06%)d85.85( 96.81%)
                                         0.0000  0.0019  0.1062  0.0048 -0.0866
                                        -0.0033 -0.0011  0.0102 -0.1140 -0.2858
                                         0.0243 -0.9098 -0.0139 -0.2406
  73. (0.00019) RY ( 6) C  4            s( 18.40%)p 0.98( 17.95%)d 3.46( 63.65%)
                                         0.0000 -0.0214  0.4284 -0.0002  0.1610
                                        -0.0063  0.3913 -0.0025  0.0201  0.5615
                                         0.4532 -0.1197 -0.3171 -0.0303
  74. (0.00009) RY ( 7) C  4            s(  2.88%)p 4.07( 11.75%)d29.60( 85.37%)
  75. (0.00003) RY ( 8) C  4            s(  0.00%)p 1.00(  0.55%)d99.99( 99.44%)
  76. (0.00002) RY ( 9) C  4            s(  0.01%)p66.07(  0.73%)d99.99( 99.26%)
  77. (0.01983) RY ( 1) C  5            s( 12.09%)p 7.23( 87.37%)d 0.04(  0.54%)
                                         0.0000 -0.0652  0.3415 -0.0394  0.7833
                                         0.0084 -0.4401  0.0086 -0.2545 -0.0392
                                         0.0050  0.0161 -0.0589  0.0100
  78. (0.01090) RY ( 2) C  5            s(  0.30%)p99.99( 58.66%)d99.99( 41.04%)
                                         0.0000 -0.0241  0.0489  0.0417 -0.3457
                                         0.0469 -0.6805 -0.0076 -0.0036  0.2915
                                        -0.0536 -0.1451  0.5486 -0.0249
  79. (0.00549) RY ( 3) C  5            s( 20.70%)p 0.56( 11.58%)d 3.27( 67.72%)
                                         0.0000  0.0017  0.4550 -0.0316 -0.2083
                                         0.0260  0.1220 -0.0413 -0.2326 -0.3984
                                         0.5741 -0.1357  0.1929 -0.3651
  80. (0.00445) RY ( 4) C  5            s( 42.64%)p 0.27( 11.50%)d 1.08( 45.86%)
                                         0.0000 -0.0007  0.6530 -0.0185 -0.1500
                                         0.0276  0.0918  0.0426  0.2848 -0.2681
                                        -0.5510  0.2146  0.1150  0.1543
  81. (0.00160) RY ( 5) C  5            s(  0.44%)p99.99( 59.62%)d90.50( 39.94%)
                                         0.0000 -0.0021  0.0664  0.0100 -0.0482
                                        -0.0032 -0.3638  0.0156  0.6791 -0.0192
                                         0.4179  0.3062 -0.3546 -0.0700
  82. (0.00122) RY ( 6) C  5            s(  0.40%)p99.99( 47.62%)d99.99( 51.98%)
                                         0.0000 -0.0028  0.0634  0.0022 -0.4190
                                         0.0030 -0.3551 -0.0109 -0.4177 -0.1670
                                        -0.1676 -0.1123 -0.6675  0.0745
  83. (0.00025) RY ( 7) C  5            s( 20.59%)p 0.29(  6.03%)d 3.56( 73.38%)
                                         0.0000  0.0245  0.4531  0.0088 -0.0119
                                         0.0075  0.2174 -0.0039  0.1131  0.6844
                                         0.0646 -0.4415 -0.2538 -0.0427
  84. (0.00013) RY ( 8) C  5            s(  2.72%)p 6.55( 17.82%)d29.21( 79.46%)
                                         0.0000  0.0101  0.1646  0.0038 -0.1361
                                         0.0029  0.1005  0.0048 -0.3867  0.4075
                                         0.1948  0.7509  0.0302  0.1606
  85. (0.00002) RY ( 9) C  5            s(  0.47%)p 0.22(  0.10%)d99.99( 99.42%)
  86. (0.00175) RY ( 1) O  6            s(  5.38%)p17.27( 92.98%)d 0.30(  1.64%)
                                         0.0000 -0.0017  0.2320  0.0020 -0.4983
                                        -0.0097 -0.8251 -0.0014  0.0236  0.0448
                                        -0.0214 -0.0262  0.1151  0.0019
  87. (0.00083) RY ( 2) O  6            s(  0.20%)p99.99( 96.49%)d16.71(  3.31%)
                                         0.0000 -0.0008  0.0445  0.0062 -0.2332
                                        -0.0031  0.1286  0.0167 -0.9453 -0.0318
                                         0.1524 -0.0183  0.0535 -0.0754
  88. (0.00050) RY ( 3) O  6            s( 92.53%)p 0.08(  7.39%)d 0.00(  0.08%)
                                         0.0000 -0.0079  0.9619  0.0247  0.0255
                                        -0.0126  0.2586 -0.0068  0.0746 -0.0157
                                         0.0020 -0.0066  0.0131  0.0170
  89. (0.00006) RY ( 4) O  6            s(  1.69%)p55.23( 93.21%)d 3.02(  5.10%)
  90. (0.00004) RY ( 5) O  6            s(  0.03%)p99.99(  3.54%)d99.99( 96.43%)
  91. (0.00001) RY ( 6) O  6            s(  0.03%)p92.32(  3.22%)d99.99( 96.75%)
  92. (0.00000) RY ( 7) O  6            s(  0.00%)p 1.00(  0.52%)d99.99( 99.48%)
  93. (0.00000) RY ( 8) O  6            s(  0.03%)p88.71(  2.75%)d99.99( 97.22%)
  94. (0.00000) RY ( 9) O  6            s(  0.09%)p 5.15(  0.45%)d99.99( 99.47%)
  95. (0.00338) RY ( 1) N  7            s( 27.10%)p 2.56( 69.42%)d 0.13(  3.48%)
                                         0.0000 -0.0009  0.5206  0.0095 -0.0154
                                         0.0036  0.0238  0.0169 -0.8325  0.0613
                                        -0.0290  0.1708 -0.0259 -0.0192
  96. (0.00173) RY ( 2) N  7            s( 52.50%)p 0.54( 28.31%)d 0.37( 19.19%)
                                         0.0000 -0.0004  0.7246  0.0091 -0.0237
                                         0.0089 -0.2696 -0.0047  0.4578  0.2665
                                         0.0410 -0.0923 -0.2966 -0.1505
  97. (0.00094) RY ( 3) N  7            s( 18.43%)p 0.98( 18.03%)d 3.45( 63.54%)
                                         0.0000 -0.0109  0.4292 -0.0068 -0.0112
                                        -0.0055  0.3591 -0.0018  0.2260 -0.6629
                                        -0.1308  0.0289  0.4174  0.0613
  98. (0.00044) RY ( 4) N  7            s(  0.11%)p99.99( 96.90%)d26.69(  2.99%)
                                         0.0000 -0.0065  0.0328  0.0248  0.9722
                                        -0.0118 -0.1513 -0.0029 -0.0139 -0.0199
                                        -0.1178 -0.0542  0.0506  0.1007
  99. (0.00034) RY ( 5) N  7            s(  0.28%)p99.99( 78.16%)d76.45( 21.56%)
                                         0.0000  0.0430 -0.0311  0.0007 -0.1838
                                         0.0013 -0.8636 -0.0004 -0.0442 -0.2853
                                        -0.1678  0.1147  0.2576  0.1630
 100. (0.00019) RY ( 6) N  7            s(  0.01%)p 1.00(  3.92%)d24.51( 96.07%)
                                         0.0000  0.0059  0.0063  0.0055  0.0843
                                        -0.0008 -0.1516 -0.0060 -0.0951 -0.2004
                                         0.8367 -0.2501  0.1903 -0.3489
 101. (0.00007) RY ( 7) N  7            s(  0.41%)p 1.24(  0.50%)d99.99( 99.09%)
 102. (0.00003) RY ( 8) N  7            s(  0.42%)p 6.91(  2.87%)d99.99( 96.72%)
 103. (0.00002) RY ( 9) N  7            s(  0.97%)p 1.87(  1.82%)d99.76( 97.21%)
 104. (0.00692) RY ( 1) H  8            s( 99.36%)p 0.01(  0.64%)
                                         0.0191  0.9966  0.0536 -0.0459 -0.0380
 105. (0.00009) RY ( 2) H  8            s(  0.54%)p99.99( 99.46%)
 106. (0.00006) RY ( 3) H  8            s(  0.14%)p99.99( 99.86%)
 107. (0.00006) RY ( 4) H  8            s(  0.07%)p99.99( 99.93%)
 108. (0.00545) RY ( 1) H  9            s( 99.83%)p 0.00(  0.17%)
                                         0.0104  0.9991 -0.0143  0.0327 -0.0197
 109. (0.00011) RY ( 2) H  9            s(  0.02%)p99.99( 99.98%)
                                         0.0114  0.0080 -0.2147 -0.7313 -0.6473
 110. (0.00007) RY ( 3) H  9            s(  0.02%)p99.99( 99.98%)
 111. (0.00004) RY ( 4) H  9            s(  0.25%)p99.99( 99.75%)
 112. (0.00211) RY ( 1) H 10            s( 98.96%)p 0.01(  1.04%)
                                         0.0056  0.9948 -0.0055  0.0434  0.0923
 113. (0.00013) RY ( 2) H 10            s(  0.02%)p99.99( 99.98%)
                                         0.0109 -0.0088  0.5415 -0.7043  0.4588
 114. (0.00009) RY ( 3) H 10            s(  0.67%)p99.99( 99.33%)
 115. (0.00002) RY ( 4) H 10            s(  0.46%)p99.99( 99.54%)
 116. (0.00171) RY ( 1) H 11            s( 98.87%)p 0.01(  1.13%)
                                         0.0049  0.9943 -0.0303  0.0746 -0.0691
 117. (0.00011) RY ( 2) H 11            s(  0.13%)p99.99( 99.87%)
                                        -0.0154  0.0320 -0.0406  0.4038  0.9133
 118. (0.00010) RY ( 3) H 11            s(  0.44%)p99.99( 99.56%)
 119. (0.00002) RY ( 4) H 11            s(  0.67%)p99.99( 99.33%)
 120. (0.00458) RY ( 1) H 12            s( 98.99%)p 0.01(  1.01%)
                                         0.0165  0.9948 -0.0596 -0.0755  0.0285
 121. (0.00049) RY ( 2) H 12            s(  0.06%)p99.99( 99.94%)
                                         0.0029  0.0248 -0.2294  0.1456 -0.9621
 122. (0.00008) RY ( 3) H 12            s(  0.12%)p99.99( 99.88%)
[...]
  8 H                -0.0      -0.1      -0.2       0.0      -0.0      -0.3

                     30        31        32        33        34        35   
                   0.00000   0.00000   0.00000   0.00000   0.00000   0.00000
                   0.01475   0.02591   0.03138   0.09126   0.01316   0.01095
                  --------  --------  --------  --------  --------  --------
  0 O                -0.1      -0.1      -0.0       0.0      -0.0       0.0
  1 C                -1.2       1.0       0.2       0.1       0.1      -0.2
  2 C                52.7      55.4      43.0      -0.6       0.0       0.1
  3 C                51.8       1.7       0.1      47.0      43.7      43.2
  4 C                -1.4       0.3      -0.0      51.9      -0.3      -0.2
  5 O                 0.0      -0.1       0.0       0.8       0.0       0.0
  6 N                -0.8      42.1      -0.0       1.1      -0.1      -0.3
  7 H                 0.0      -0.1      -0.2       0.0       0.0       0.0
  8 H                -0.3       0.2      57.0       0.0      -0.1       0.1
  9 H                -0.3       0.0      -0.1      -0.2      56.6       0.1
 10 H                -0.3       0.0       0.0      -0.1       0.1      57.2
 11 H                -0.0      -0.4       0.0      -0.0       0.0      -0.0

                     36        37        38        39        40        41   
                   0.00000   0.00000   0.00000   0.00000   0.00000   0.00000
                   0.02350   0.29312   0.09346   0.03305   0.00306   0.00021
                  --------  --------  --------  --------  --------  --------
  0 O                -0.0      -0.0      -0.0      -0.0     113.0     127.8
  1 C                -0.0      -0.1      -0.2      -0.0     -13.6     -24.1
  2 C                 0.5      -0.5       0.9      -0.4       1.1      -2.0
  3 C                 0.6       1.3       1.3      -0.3      -0.0       0.1
  4 C                56.2      67.5      56.7      -0.5       0.0      -0.0
  5 O                42.3      32.3       0.6      -0.0      -0.0      -0.0
  6 N                 0.2      -0.3      41.0      32.0      -0.1       0.1
  7 H                 0.0       0.0       0.1       0.0      -0.2      -1.7
  8 H                 0.0       0.0       0.0       0.0      -0.3      -0.1
  9 H                 0.0      -0.1      -0.0       0.0       0.0      -0.0
 10 H                 0.0      -0.1      -0.0      -0.0      -0.0      -0.0
 11 H                 0.1       0.0      -0.3      69.1      -0.0      -0.0

                     42        43        44        45        46        47   
                   0.00000   0.00000   0.00000   0.00000   0.00000   0.00000
                   0.00015   0.00006   0.00001   0.00000   0.00000   0.00000
                  --------  --------  --------  --------  --------  --------
  0 O               104.6     105.8     103.8     103.3     100.3     102.5
  1 C                -4.0      -4.2      -3.7      -3.1      -0.3      -2.4
  2 C                -0.0      -1.2      -0.0      -0.0       0.0      -0.1
  3 C                -0.2      -0.0       0.0      -0.0      -0.0      -0.0
  6 N                -0.0      -0.1      -0.0      -0.0      -0.0       0.0
  7 H                -0.2      -0.1      -0.1      -0.1      -0.0      -0.0

                     48        49        50        51        52        53   
                   0.00000   0.00000   0.00000   0.00000   0.00000   0.00000
                   0.00000   0.01415   0.00768   0.00302   0.00165   0.00056
                  --------  --------  --------  --------  --------  --------
  0 O               101.4     -33.7      -3.7      -5.2      -5.9      -5.5
  1 C                -1.4     152.4     163.9     121.4     137.0     152.5
  2 C                -0.0     -19.4     -51.2      -5.5      -7.4     -47.4
  3 C                -0.0       0.5       0.4      -0.2      -0.5       2.5
  4 C                -0.0       0.3       0.2      -0.0      -0.1      -0.5
  6 N                -0.0       0.5       1.0      -0.3      -0.5       1.5
  7 H                -0.0      -0.8      -9.3      -9.4     -22.8      -1.9
  8 H                -0.0       0.2      -0.0       0.2       0.3      -0.2
  9 H                -0.0      -0.0      -1.3      -0.9       0.0      -1.0

                     54        55        56        57        58        59   
                   0.00000   0.00000   0.00000   0.00000   0.00000   0.00000
                   0.00024   0.00017   0.00002   0.00000   0.00632   0.00281
                  --------  --------  --------  --------  --------  --------
  0 O                -2.8      -1.5      -0.4      -0.7       0.2      -0.3
  1 C               133.9     113.4     102.9     104.0     -29.3      -6.5
  2 C               -30.4      -5.7      -0.2      -0.9     180.7     195.0
  3 C                -0.0       0.6       0.1      -0.1     -15.0     -54.2
  4 C                -0.2      -0.0      -0.0       0.0      -3.4       3.1
  5 O                -0.0      -0.0      -0.0      -0.0      -0.5       0.1
  6 N                 1.6      -0.0      -0.0       0.0     -13.6     -17.4
  7 H                -2.0      -6.8      -2.3      -2.1      -0.6       0.0
  8 H                -0.2       0.3      -0.0      -0.1     -18.2     -21.0
  9 H                 0.2      -0.2      -0.1      -0.0       0.1       0.2
 10 H                 0.0      -0.0      -0.0       0.0      -0.2       1.0
 11 H                 0.0      -0.0      -0.0      -0.0      -0.2      -0.2

                     60        61        62        63        64        65   
                   0.00000   0.00000   0.00000   0.00000   0.00000   0.00000
                   0.00136   0.00131   0.00108   0.00039   0.00022   0.00015
                  --------  --------  --------  --------  --------  --------
  0 O                -1.4      -0.2       0.0      -0.1      -0.2      -0.1
  1 C               -75.9     -16.6      -6.6      -8.2     -15.3      -3.8
  2 C               222.6     144.1     120.5     115.3     167.6     114.0
  3 C                -8.1     -14.2      -2.4      -4.5     -39.1      -4.6
  4 C                -0.6      -1.6       0.1      -0.0       2.6       0.1
  5 O                -0.1      -0.2       0.0      -0.0      -0.4       0.0
  6 N               -37.0      -7.1      -4.3      -1.6     -12.4      -0.8
  7 H                 0.7      -0.2      -0.1       0.0      -0.1      -0.2
  8 H                 0.4      -4.1      -7.4      -1.3      -3.2      -4.9
  9 H                 0.0       0.9       0.1       0.2       0.6       0.1
 10 H                 0.1      -0.1      -0.0      -0.0       0.1       0.2
 11 H                -0.7      -0.6      -0.1       0.2      -0.3       0.0

                     66        67        68        69        70        71   
                   0.00000   0.00000   0.00000   0.00000   0.00000   0.00000
                   0.00009   0.00325   0.00240   0.00104   0.00061   0.00034
                  --------  --------  --------  --------  --------  --------
  0 O                 0.0      -0.2      -0.1      -0.0      -0.1      -0.0
  1 C                -1.0       2.4      -0.8      -0.7       1.3      -0.1
  2 C               108.5     -61.6     -10.3      -7.1     -47.0      -1.2
  3 C                 0.0     211.0     164.0     148.6     186.7     113.6
  4 C                -0.1     -42.6     -41.6     -21.8     -15.4      -1.8
  5 O                -0.0      -1.8      -0.8      -0.3      -0.6      -0.0
  6 N                -1.1       7.2       1.3      -2.1       1.8       0.2
  7 H                -0.1      -0.1       0.0       0.0      -0.0      -0.0
  8 H                -6.0      -0.4      -0.0       0.4       0.8      -0.0
  9 H                -0.0      -9.6      -7.6     -15.3      -4.9      -5.7
 10 H                -0.0      -4.3      -4.2      -1.5     -22.6      -4.8

                     72        73        74        75        76        77   
                   0.00000   0.00000   0.00000   0.00000   0.00000   0.00000
                   0.00019   0.00009   0.00003   0.00002   0.01983   0.01090
                  --------  --------  --------  --------  --------  --------
  1 C                 0.6       0.2      -0.0       0.0       0.0       0.1
  2 C                -8.0      -5.1      -2.3      -0.3      -4.2      -1.9
  3 C               134.4     118.0     105.0     108.1      -5.4     -17.8
  4 C                -4.4      -0.5      -1.1      -1.8     158.4     144.4
  5 O                -0.6       0.0      -0.0      -0.0     -43.8     -13.1
  6 N                -0.6      -0.1      -0.0       0.0      -4.2     -12.2
  7 H                -0.0      -0.1      -0.0      -0.0      -0.1      -0.0
  8 H                -0.0       0.3      -0.0       0.0      -0.2      -0.0
  9 H               -11.7      -2.6      -0.6      -3.0      -0.1       0.2
 10 H                -9.6      -9.9      -0.8      -3.0      -0.1       0.3
 11 H                -0.1      -0.0      -0.0      -0.0      -0.3       0.1

                     78        79        80        81        82        83   
                   0.00000   0.00000   0.00000   0.00000   0.00000   0.00000
                   0.00549   0.00445   0.00160   0.00122   0.00025   0.00013
                  --------  --------  --------  --------  --------  --------
  1 C                 0.0      -0.4       0.1      -0.1      -0.0      -0.1
  2 C                 0.6       3.1      -0.2      -0.7       3.4       0.6
  3 C               -19.2     -39.9      -5.9      -8.3     -30.7      -8.5
  4 C               132.9     162.3     121.5     129.7     140.2     110.3
  5 O                -2.6      -0.7      -3.7      -4.5      -2.7      -0.9
  6 N               -11.2     -23.6     -11.2     -15.3      -9.4      -1.9
  7 H                -0.1      -0.4      -0.1       0.0      -0.2       0.0
  9 H                -0.1      -0.1      -0.1       0.2       0.0       0.2
 10 H                -0.2      -0.1       0.2       0.0      -0.3       0.4
 11 H                -0.1      -0.1      -0.6      -1.0      -0.1      -0.1

                     84        85        86        87        88        89   
                   0.00000   0.00000   0.00000   0.00000   0.00000   0.00000
                   0.00002   0.00175   0.00083   0.00050   0.00006   0.00004
                  --------  --------  --------  --------  --------  --------
  1 C                -0.0      -0.0      -0.1      -0.1       0.0      -0.0
  2 C                -0.0      -0.1       0.0      -1.0      -0.0       0.0
  3 C                -0.6      -1.4      -0.7      -1.3       0.1      -0.1
  4 C               101.6     -15.8      -5.4     -32.1      -4.8      -2.2
  5 O                -0.5     118.5     106.8     138.4     104.8     102.4
  6 N                -0.4      -1.2      -0.5      -3.4      -0.0      -0.1
  8 H                -0.0      -0.0      -0.0      -0.2       0.0      -0.0

                     90        91        92        93        94        95   
                   0.00000   0.00000   0.00000   0.00000   0.00000   0.00000
                   0.00001   0.00000   0.00000   0.00000   0.00338   0.00173
                  --------  --------  --------  --------  --------  --------
  1 C                -0.0      -0.0      -0.0      -0.0       2.4      -0.0
  2 C                -0.0       0.0      -0.0      -0.0     -25.0     -30.2
  3 C                -0.5      -0.0      -0.1      -0.0       1.6       6.0
  4 C                -2.8      -0.2      -2.8      -0.5     -11.0     -28.8
  5 O               103.6     100.2     103.0     100.5      -0.8      -1.6
  6 N                -0.2      -0.0      -0.1      -0.0     134.7     157.0
  7 H                -0.0      -0.0      -0.0      -0.0      -0.3      -0.0
  8 H                -0.0      -0.0      -0.0      -0.0      -0.2      -0.1
 11 H                -0.0      -0.0      -0.0      -0.0      -1.4      -2.2

                     96        97        98        99       100       101   
                   0.00000   0.00000   0.00000   0.00000   0.00000   0.00000
                   0.00094   0.00044   0.00034   0.00019   0.00007   0.00003
                  --------  --------  --------  --------  --------  --------
  1 C                -0.0       1.0      -0.2       0.3      -0.1       0.0
  2 C                -2.5     -18.8      -7.3      -2.0      -1.9      -1.1
  3 C                -0.1      -3.4       2.6      -0.1       0.2      -0.0
  4 C               -10.6     -18.7      -7.8      -1.5      -2.6      -1.1
  5 O                -0.4      -0.7      -1.4      -0.0      -0.0      -0.1
  6 N               124.0     143.8     126.1     103.8     106.3     104.0
  8 H                 0.0       0.4      -0.2      -0.1      -0.0      -0.1
 11 H               -10.3      -3.4     -11.8      -0.3      -1.9      -1.5

                    102       103       104       105       106       107   
                   0.00000   0.00000   0.00000   0.00000   0.00000   0.00000
                   0.00002   0.00692   0.00009   0.00006   0.00006   0.00545
                  --------  --------  --------  --------  --------  --------
  0 O                -0.0      -0.9      -1.1      -0.1      -0.4      -0.4
  1 C                -0.3     -37.2      -2.8      -7.7      -2.8       0.2
  2 C                -0.8       0.1      -0.5       0.1      -0.1     -42.5
  3 C                -0.2      -0.1      -0.1      -0.1      -0.0       0.8
  4 C                -1.2      -0.8       0.0       0.0      -0.0      -0.3
  5 O                -0.1      -0.1      -0.0      -0.0      -0.0      -0.0
  6 N               104.2      -0.3      -0.1      -0.0      -0.0       0.2
  7 H                -0.0     140.0     104.6     107.8     103.4       0.0
  8 H                 0.0       0.1      -0.0      -0.0      -0.0     143.3
  9 H                 0.0      -0.6      -0.0       0.0      -0.0       0.0
 10 H                 0.0      -0.0      -0.0      -0.0      -0.0      -1.2
 11 H                -1.6      -0.1      -0.0       0.0      -0.0      -0.1

                    108       109       110       111       112       113   
                   0.00000   0.00000   0.00000   0.00000   0.00000   0.00000
                   0.00011   0.00007   0.00004   0.00211   0.00013   0.00009
                  --------  --------  --------  --------  --------  --------
  1 C                -0.3      -0.3       0.1      -3.3      -0.0      -0.0
  2 C                -4.1      -3.2      -7.1       2.9      -0.0      -0.2
  3 C                -0.1      -0.3      -0.4     -41.2      -4.2      -3.9
  4 C                -0.1      -0.0       0.0       0.1      -0.0      -0.2
  6 N                -0.3      -0.3      -0.6      -0.1      -0.0      -0.0
  7 H                -0.0      -0.0       0.0      -0.6      -0.0      -0.0
  8 H               105.2     104.3     108.0       0.0      -0.0      -0.0
  9 H                -0.0      -0.0      -0.0     142.9     104.9     105.0
 10 H                -0.1      -0.0      -0.0      -0.7      -0.6      -0.6

                    114       115       116       117       118       119   
                   0.00000   0.00000   0.00000   0.00000   0.00000   0.00000
                   0.00002   0.00171   0.00011   0.00010   0.00002   0.00458
                  --------  --------  --------  --------  --------  --------
  2 C                -0.6       0.5       0.1      -0.3      -0.3      -1.8
  3 C                -6.6     -39.6      -4.9      -3.2      -7.1      -0.1
  4 C                -0.3      -0.1      -0.1      -0.1      -0.3      -2.5
  5 O                -0.0      -0.0      -0.0      -0.1      -0.0      -0.1
  6 N                 0.0       0.1      -0.0      -0.1       0.0     -11.0
  8 H                -0.0      -1.2      -0.1      -0.0      -0.0      -0.1
  9 H               107.5      -0.8      -0.7      -0.5       0.0       0.0
 10 H                 0.0     141.0     105.7     104.3     107.7       0.0
 11 H                -0.0       0.0      -0.0      -0.0      -0.0     115.7

                    120       121       122   
                   0.00000   0.00000   0.00000
                   0.00049   0.00008   0.00005
                  --------  --------  --------
  2 C                -0.1      -0.5      -0.0
  4 C                -0.1      -0.2       0.2
  6 N                -3.1      -3.0      -5.5
 11 H               103.5     103.9     105.4

Storing NBOs: 6632.nbo
                                    *** NBOs were stored ***

                                *** returned from GENNBO program ***

-------
TIMINGS
-------

Total SCF time: 0 days 0 hours 0 min 4 sec 

Total time                  ....       4.853 sec
Sum of individual times     ....       5.248 sec  (108.1%)

Fock matrix formation       ....       3.276 sec  ( 67.5%)
  Coulomb formation         ....       1.877 sec  ( 57.3% of F)
  Split-RI-J                ....       1.869 sec  ( 57.1% of F)
  XC integration            ....       1.395 sec  ( 42.6% of F)
    Basis function eval.    ....       0.483 sec  ( 34.6% of XC)
    Density eval.           ....       0.255 sec  ( 18.3% of XC)
    XC-Functional eval.     ....       0.097 sec  (  7.0% of XC)
    XC-Potential eval.      ....       0.511 sec  ( 36.7% of XC)
Diagonalization             ....       0.019 sec  (  0.4%)
Density matrix formation    ....       0.002 sec  (  0.0%)
Population analysis         ....       1.085 sec  ( 22.3%)
Initial guess               ....       0.300 sec  (  6.2%)
Orbital Transformation      ....       0.000 sec  (  0.0%)
Orbital Orthonormalization  ....       0.000 sec  (  0.0%)
DIIS solution               ....       0.005 sec  (  0.1%)
SOSCF solution              ....       0.012 sec  (  0.3%)
Grid generation             ....       0.549 sec  ( 11.3%)
           ************************************************************
           *              Shut down parallel processing               *
           ************************************************************

-------------------------   --------------------
FINAL SINGLE POINT ENERGY      -359.934041869277
-------------------------   --------------------


                            ***************************************
                            *     ORCA property calculations      *
                            ***************************************

                                    ---------------------
                                    Active property flags
                                    ---------------------
   (+) Dipole Moment


------------------------------------------------------------------------------
                       ORCA ELECTRIC PROPERTIES CALCULATION
------------------------------------------------------------------------------

Dipole Moment Calculation                       ... on
Quadrupole Moment Calculation                   ... off
Polarizability Calculation                      ... off
GBWName                                         ... 6632.gbw
Electron density file                           ... 6632.scfp.tmp

-------------
DIPOLE MOMENT
-------------
                                X             Y             Z
Electronic contribution:     -0.15242      -1.46484       0.09402
Nuclear contribution   :     -0.28809       1.43431      -0.24583
                        -----------------------------------------
Total Dipole Moment    :     -0.44051      -0.03054      -0.15181
                        -----------------------------------------
Magnitude (a.u.)       :      0.46694
Magnitude (Debye)      :      1.18686


Timings for individual modules:

Sum of individual times         ...        5.945 sec (=   0.099 min)
GTO integral calculation        ...        0.464 sec (=   0.008 min)   7.8 %
SCF iterations                  ...        5.482 sec (=   0.091 min)  92.2 %
                             ****ORCA TERMINATED NORMALLY****
TOTAL RUN TIME: 0 days 0 hours 0 minutes 6 seconds 342 msec
