
                                 *****************
                                 * O   R   C   A *
                                 *****************

           --- An Ab Initio, DFT and Semiempirical electronic structure package ---

                  #######################################################
                  #                        -***-                        #
                  #  Department of molecular theory and spectroscopy    #
                  #              Directorship: Frank Neese              #
                  # Max Planck Institute for Chemical Energy Conversion #
                  #                  D-45470 Muelheim/Ruhr              #
                  #                       Germany                       #
                  #                                                     #
                  #                  All rights reserved                #
                  #                        -***-                        #
                  #######################################################


                         Program Version 3.0.3 - RELEASE   -


 With contributions from (in alphabetic order):
   Ute Becker             : Parallelization
   Dmytro Bykov           : SCF Hessian
   Dmitry Ganyushin       : Spin-Orbit,Spin-Spin,Magnetic field MRCI
   Andreas Hansen         : Spin unrestricted coupled pair/coupled cluster methods
   Dimitrios Liakos       : Extrapolation schemes; parallel MDCI
   Robert Izsak           : Overlap fitted RIJCOSX, COSX-SCS-MP3
   Christian Kollmar      : KDIIS, OOCD, Brueckner-CCSD(T), CCSD density
   Simone Kossmann        : Meta GGA functionals, TD-DFT gradient, OOMP2, MP2 Hessian
   Taras Petrenko         : DFT Hessian,TD-DFT gradient, ASA and ECA modules, normal mode analysis, Resonance Raman, ABS, FL, XAS/XES, NRVS
   Christoph Reimann      : Effective Core Potentials
   Michael Roemelt        : Restricted open shell CIS
   Christoph Riplinger    : Improved optimizer, TS searches, QM/MM, DLPNO-CCSD
   Barbara Sandhoefer     : DKH picture change effects
   Igor Schapiro          : Molecular dynamics
   Kantharuban Sivalingam : CASSCF convergence, NEVPT2
   Boris Wezisla          : Elementary symmetry handling
   Frank Wennmohs         : Technical directorship


 We gratefully acknowledge several colleagues who have allowed us to
 interface, adapt or use parts of their codes:
   Stefan Grimme, W. Hujo, H. Kruse, T. Risthaus : VdW corrections, initial TS optimization,
                                                   DFT functionals, gCP
   Ed Valeev                                     : LibInt (2-el integral package), F12 methods
   Garnet Chan, S. Sharma, R. Olivares           : DMRG
   Ulf Ekstrom                                   : XCFun DFT Library
   Mihaly Kallay                                 : mrcc  (arbitrary order and MRCC methods)
   Andreas Klamt, Michael Diedenhofen            : otool_cosmo (COSMO solvation model)
   Frank Weinhold                                : gennbo (NPA and NBO analysis)
   Christopher J. Cramer and Donald G. Truhlar   : smd solvation model


 Your calculation uses the libint2 library for the computation of 2-el integrals
 For citations please refer to: http://libint.valeyev.net

 This ORCA versions uses:
   CBLAS   interface :  Fast vector & matrix operations
   LAPACKE interface :  Fast linear algebra routines
   SCALAPACK package :  Parallel linear algebra routines


Your calculation utilizes the basis: Ahlrichs-VDZ
Cite in your paper:
H - Kr: A. Schaefer, H. Horn and R. Ahlrichs, J. Chem. Phys. 97, 2571 (1992).

Your calculation utilizes the basis: Ahlrichs SVPalls1+f
Cite in your paper:
Rb - Xe: A. Schaefer, C. Huber and R. Ahlrichs, J. Chem. Phys. 100, 5829 (1994).

================================================================================
                                        WARNINGS
                       Please study these warnings very carefully!
================================================================================
Now building the actual basis set


INFO   : the flag for use of LIBINT has been found!

================================================================================
                                       INPUT FILE
================================================================================
NAME = 6777.inp
|  1> ! RI PBE def2-SVP def2-SVP/J NBO PAL2
|  2> % maxcore 2000
|  3> % output
|  4>     # printlevel mini
|  5>     print[ P_Basis ] 0
|  6>     print[ P_SCFInfo ] 1
|  7>     print[ P_SCFIterInfo ] 1
|  8>     print[ P_OrbEn ] 0
|  9>     print[ P_Cartesian ] 0
| 10> end
| 11> *xyz 0 1
| 12>  O        3.3156010000    -1.1443390000     0.0570260000 
| 13>  C        3.1362490000     0.0424340000    -0.1416810000 
| 14>  N        2.7199350000     0.5536970000    -1.3123900000 
| 15>  C        2.8047620000     1.9304060000    -1.7470790000 
| 16>  C        3.3729650000     1.8199730000    -3.1785010000 
| 17>  C        3.6292410000     0.3221190000    -3.3491350000 
| 18>  N        2.6325940000    -0.2673060000    -2.4534040000 
| 19>  H        3.2556190000     0.8174100000     0.6359780000 
| 20>  H        3.4466180000     2.4909680000    -1.0663760000 
| 21>  H        1.8161530000     2.3963290000    -1.7556690000 
| 22>  H        4.2814750000     2.4070650000    -3.3124980000 
| 23>  H        2.6347530000     2.1685050000    -3.9010290000 
| 24>  H        4.6549240000     0.0719890000    -3.0445920000 
| 25>  H        3.4679310000    -0.0250700000    -4.3699550000 
| 26>  H        2.8804800000    -1.2023770000    -2.1361060000 
| 27> *
| 28> 
| 29>                          ****END OF INPUT****
================================================================================

                       ****************************
                       * Single Point Calculation *
                       ****************************

--------------------------------
INTERNAL COORDINATES (ANGSTROEM)
--------------------------------
 O      0   0   0   0.000000     0.000     0.000
 C      1   0   0   1.216586     0.000     0.000
 N      2   1   0   1.343602   123.999     0.000
 C      3   2   1   1.446194   127.298   197.135
 C      4   3   2   1.544027   103.424   132.814
 C      5   4   3   1.529170   103.602   356.552
 N      3   2   1   1.408399   120.219   351.556
 H      2   1   3   1.104351   123.614   177.214
 H      4   3   2   1.090672   109.645    11.446
 H      4   3   2   1.092934   110.801   251.648
 H      5   4   3   1.089965   112.469   235.441
 H      5   4   3   1.090173   110.021   114.870
 H      6   5   4   1.098789   110.395   268.686
 H      6   5   4   1.090245   113.055   146.327
 H      7   3   2   1.018078   105.534     3.157

---------------------------
INTERNAL COORDINATES (A.U.)
---------------------------
 O      0   0   0   0.000000     0.000     0.000
 C      1   0   0   2.299015     0.000     0.000
 N      2   1   0   2.539040   123.999     0.000
 C      3   2   1   2.732911   127.298   197.135
 C      4   3   2   2.917788   103.424   132.814
 C      5   4   3   2.889712   103.602   356.552
 N      3   2   1   2.661488   120.219   351.556
 H      2   1   3   2.086920   123.614   177.214
 H      4   3   2   2.061071   109.645    11.446
 H      4   3   2   2.065347   110.801   251.648
 H      5   4   3   2.059734   112.469   235.441
 H      5   4   3   2.060129   110.021   114.870
 H      6   5   4   2.076410   110.395   268.686
 H      6   5   4   2.060265   113.055   146.327
 H      7   3   2   1.923889   105.534     3.157



           ************************************************************
           *        Program running with 2 parallel MPI-processes     *
           *              working on a common directory               *
           ************************************************************
------------------------------------------------------------------------------
                           ORCA GTO INTEGRAL CALCULATION
                           -- RI-GTO INTEGRALS CHOSEN --
------------------------------------------------------------------------------

                         BASIS SET STATISTICS AND STARTUP INFO

Gaussian basis set:
 # of primitive gaussian shells          ...  124
 # of primitive gaussian functions       ...  224
 # of contracted shells                  ...   66
 # of contracted basis functions         ...  138
 Highest angular momentum                ...    2
 Maximum contraction depth               ...    5
Auxiliary gaussian basis set:
 # of primitive gaussian shells          ...  232
 # of primitive gaussian functions       ...  618
 # of contracted shells                  ...  145
 # of contracted aux-basis functions     ...  431
 Highest angular momentum                ...    4
 Maximum contraction depth               ...    7
Ratio of auxiliary to basis functions    ...  3.12
Integral package used                  ... LIBINT
 One Electron integrals                  ... done
 Ordering auxiliary basis shells         ... done
 Integral threshhold             Thresh  ...  1.000e-10
 Primitive cut-off               TCut    ...  1.000e-11
 Pre-screening matrix                    ... done
 Shell pair data                         ... 
 Ordering of the shell pairs             ... done (   0.000 sec) 2154 of 2211 pairs
 Determination of significant pairs      ... done (   0.000 sec)
 Creation of shell pair data             ... done (   0.000 sec)
 Storage of shell pair data              ... done (   0.000 sec)
 Shell pair data done in (   0.001 sec)
 Computing two index integrals           ... done
 Cholesky decomposition of the V-matrix  ... done


Timings:
 Total evaluation time                   ...   0.149 sec (  0.002 min)
 One electron matrix time                ...   0.016 sec (  0.000 min) = 10.7%
 Schwartz matrix evaluation time         ...   0.071 sec (  0.001 min) = 47.8%
 Two index repulsion integral time       ...   0.005 sec (  0.000 min) =  3.2%
 Cholesky decomposition of V             ...   0.003 sec (  0.000 min) =  2.2%
 Three index repulsion integral time     ...   0.000 sec (  0.000 min) =  0.0%

           ************************************************************
           *              Shut down parallel processing               *
           ************************************************************


           ************************************************************
           *        Program running with 2 parallel MPI-processes     *
           *              working on a common directory               *
           ************************************************************
-------------------------------------------------------------------------------
                                 ORCA SCF
-------------------------------------------------------------------------------

------------
SCF SETTINGS
------------
Hamiltonian:
 Density Functional     Method          .... DFT(GTOs)
 Exchange Functional    Exchange        .... PBE
   PBE kappa parameter  XKappa          ....  0.804000
 Correlation Functional Correlation     .... PBE
 LDA part of GGA corr.  LDAOpt          .... PW91-LDA
 Gradients option       PostSCFGGA      .... off
   NL short-range parameter             ....  6.400000
 RI-approximation to the Coulomb term is turned on
   Number of auxiliary basis functions  .... 431


General Settings:
 Integral files         IntName         .... 6777
 Hartree-Fock type      HFTyp           .... RHF
 Total Charge           Charge          ....    0
 Multiplicity           Mult            ....    1
 Number of Electrons    NEL             ....   54
 Basis Dimension        Dim             ....  138
 Nuclear Repulsion      ENuc            ....    318.6064004392 Eh

Convergence Acceleration:
 DIIS                   CNVDIIS         .... on
   Start iteration      DIISMaxIt       ....    12
   Startup error        DIISStart       ....  0.200000
   # of expansion vecs  DIISMaxEq       ....     5
   Bias factor          DIISBfac        ....   1.050
   Max. coefficient     DIISMaxC        ....  10.000
 Newton-Raphson         CNVNR           .... off
 SOSCF                  CNVSOSCF        .... on
   Start iteration      SOSCFMaxIt      ....   150
   Startup grad/error   SOSCFStart      ....  0.003300
 Level Shifting         CNVShift        .... on
   Level shift para.    LevelShift      ....    0.2500
   Turn off err/grad.   ShiftErr        ....    0.0010
 Zerner damping         CNVZerner       .... off
 Static damping         CNVDamp         .... on
   Fraction old density DampFac         ....    0.7000
   Max. Damping (<1)    DampMax         ....    0.9800
   Min. Damping (>=0)   DampMin         ....    0.0000
   Turn off err/grad.   DampErr         ....    0.1000
 Fernandez-Rico         CNVRico         .... off

SCF Procedure:
 Maximum # iterations   MaxIter         ....   125
 SCF integral mode      SCFMode         .... Direct
   Integral package                     .... LIBINT
 Reset frequeny         DirectResetFreq ....    20
 Integral Threshold     Thresh          ....  1.000e-10 Eh
 Primitive CutOff       TCut            ....  1.000e-11 Eh

Convergence Tolerance:
 Convergence Check Mode ConvCheckMode   .... Total+1el-Energy
 Energy Change          TolE            ....  1.000e-06 Eh
 1-El. energy change                    ....  1.000e-03 Eh
 Orbital Gradient       TolG            ....  5.000e-05
 Orbital Rotation angle TolX            ....  5.000e-05
 DIIS Error             TolErr          ....  1.000e-06


Diagonalization of the overlap matrix:
Smallest eigenvalue                        ... 1.271e-03
Time for diagonalization                   ...    0.012 sec
Threshold for overlap eigenvalues          ... 1.000e-08
Number of eigenvalues below threshold      ... 0
Time for construction of square roots      ...    0.003 sec
Total time needed                          ...    0.015 sec

-------------------
DFT GRID GENERATION
-------------------

General Integration Accuracy     IntAcc      ...  4.340
Radial Grid Type                 RadialGrid  ... Gauss-Chebyshev
Angular Grid (max. acc.)         AngularGrid ... Lebedev-110
Angular grid pruning method      GridPruning ... 3 (G Style)
Weight generation scheme         WeightScheme... Becke
Basis function cutoff            BFCut       ...    1.0000e-10
Integration weight cutoff        WCut        ...    1.0000e-14
Grids for H and He will be reduced by one unit

# of grid points (after initial pruning)     ...  18096 (   0.0 sec)
# of grid points (after weights+screening)   ...  16779 (   0.1 sec)
nearest neighbour list constructed           ...    0.0 sec
Grid point re-assignment to atoms done       ...    0.0 sec
Grid point division into batches done        ...    0.0 sec
Reduced shell lists constructed in    0.1 sec

Total number of grid points                  ...    16779
Total number of batches                      ...      268
Average number of points per batch           ...       62
Average number of grid points per atom       ...     1119
Average number of shells per batch           ...    52.96 (80.25%)
Average number of basis functions per batch  ...   110.92 (80.38%)
Average number of large shells per batch     ...    43.32 (81.79%)
Average number of large basis fcns per batch ...    89.19 (80.41%)
Maximum spatial batch extension              ...  22.93, 14.62, 16.19 au
Average spatial batch extension              ...   1.61,  1.25,  1.38 au

Time for grid setup =    0.136 sec

------------------------------
INITIAL GUESS: MODEL POTENTIAL
------------------------------
Loading Hartree-Fock densities                     ... done
Calculating cut-offs                               ... done
Setting up the integral package                    ... done
Initializing the effective Hamiltonian             ... done
Starting the Coulomb interaction                   ... done (   0.0 sec)
Reading the grid                                   ... done
Mapping shells                                     ... done
Starting the XC term evaluation                    ... done (   0.1 sec)
  promolecular density results
     # of electrons  =     53.990817088
     EX              =    -44.083422078
     EC              =     -1.810330064
     EX+EC           =    -45.893752142
Transforming the Hamiltonian                       ... done (   0.0 sec)
Diagonalizing the Hamiltonian                      ... done (   0.0 sec)
Back transforming the eigenvectors                 ... done (   0.0 sec)
Now organizing SCF variables                       ... done
                      ------------------
                      INITIAL GUESS DONE (   0.4 sec)
                      ------------------
--------------
SCF ITERATIONS
--------------
ITER       Energy         Delta-E        Max-DP      RMS-DP      [F,P]     Damp
               ***  Starting incremental Fock matrix formation  ***
  0   -341.1043400105   0.000000000000 0.11280137  0.00312491  0.2618896 0.7000
  1   -341.1897760106  -0.085436000075 0.06242565  0.00193160  0.0721049 0.7000
                               ***Turning on DIIS***
  2   -341.2139407047  -0.024164694112 0.05375867  0.00277543  0.0262304 0.0000
  3   -341.2638947566  -0.049954051934 0.04374427  0.00139095  0.0359193 0.0000
  4   -341.2714102985  -0.007515541892 0.01578841  0.00046327  0.0306529 0.0000
                      *** Initiating the SOSCF procedure ***
                           *** Shutting down DIIS ***
                      *** Re-Reading the Fockian *** 
                      *** Removing any level shift *** 
ITER      Energy       Delta-E        Grad      Rot      Max-DP    RMS-DP
  5   -341.27305162  -0.0016413218  0.000726  0.000726  0.003183  0.000135
               *** Restarting incremental Fock matrix formation ***
  6   -341.27309584  -0.0000442170  0.000902  0.005369  0.007055  0.000177
  7   -341.27299291   0.0001029313  0.003256  0.004463  0.005386  0.000123
  8   -341.27310930  -0.0001163957  0.000064  0.000287  0.000403  0.000015
  9   -341.27310895   0.0000003529  0.000127  0.000194  0.000305  0.000010
                 **** Energy Check signals convergence ****
              ***Rediagonalizing the Fockian in SOSCF/NRSCF***

               *****************************************************
               *                     SUCCESS                       *
               *           SCF CONVERGED AFTER  10 CYCLES          *
               *****************************************************

Setting up the final grid:

General Integration Accuracy     IntAcc      ...  4.670
Radial Grid Type                 RadialGrid  ... Gauss-Chebyshev
Angular Grid (max. acc.)         AngularGrid ... Lebedev-302
Angular grid pruning method      GridPruning ... 3 (G Style)
Weight generation scheme         WeightScheme... Becke
Basis function cutoff            BFCut       ...    1.0000e-10
Integration weight cutoff        WCut        ...    1.0000e-14
Grids for H and He will be reduced by one unit

# of grid points (after initial pruning)     ...  70636 (   0.0 sec)
# of grid points (after weights+screening)   ...  64592 (   0.1 sec)
nearest neighbour list constructed           ...    0.0 sec
Grid point re-assignment to atoms done       ...    0.0 sec
Grid point division into batches done        ...    0.2 sec
Reduced shell lists constructed in    0.4 sec

Total number of grid points                  ...    64592
Total number of batches                      ...     1017
Average number of points per batch           ...       63
Average number of grid points per atom       ...     4306
Average number of shells per batch           ...    49.82 (75.49%)
Average number of basis functions per batch  ...   103.58 (75.06%)
Average number of large shells per batch     ...    40.05 (80.37%)
Average number of large basis fcns per batch ...    81.78 (78.95%)
Maximum spatial batch extension              ...  20.69, 15.75, 20.35 au
Average spatial batch extension              ...   1.03,  0.91,  0.96 au

Final grid set up in    0.5 sec
Final integration                            ... done (   0.4 sec)
Change in XC energy                          ...    -0.000283410
Integrated number of electrons               ...    53.999975586
Previous integrated no of electrons          ...    53.998255930

----------------
TOTAL SCF ENERGY
----------------

Total Energy       :         -341.27339294 Eh           -9286.52114 eV

Components:
Nuclear Repulsion  :          318.60640044 Eh            8669.72092 eV
Electronic Energy  :         -659.87979338 Eh          -17956.24206 eV

One Electron Energy:        -1094.18347773 Eh          -29774.24612 eV
Two Electron Energy:          434.30368435 Eh           11818.00407 eV

Virial components:
Potential Energy   :         -679.63433464 Eh          -18493.79045 eV
Kinetic Energy     :          338.36094169 Eh            9207.26931 eV
Virial Ratio       :            2.00860753


DFT components:
N(Alpha)           :       26.999987792838 electrons
N(Beta)            :       26.999987792838 electrons
N(Total)           :       53.999975585677 electrons
E(X)               :      -44.892657798757 Eh       
E(C)               :       -1.820356184517 Eh       
E(XC)              :      -46.713013983274 Eh       

---------------
SCF CONVERGENCE
---------------

  Last Energy change         ...   -5.8276e-07  Tolerance :   1.0000e-06
  Last MAX-Density change    ...    9.6975e-05  Tolerance :   1.0000e-05
  Last RMS-Density change    ...    3.3855e-06  Tolerance :   1.0000e-06
  Last Orbital Gradient      ...    1.6814e-05  Tolerance :   5.0000e-05
  Last Orbital Rotation      ...    4.7249e-05  Tolerance :   5.0000e-05

             **** THE GBW FILE WAS UPDATED (6777.gbw) ****
             **** DENSITY FILE WAS UPDATED (6777.scfp.tmp) ****
             **** ENERGY FILE WAS UPDATED (6777.en.tmp) ****

                    ********************************
                    * MULLIKEN POPULATION ANALYSIS *
                    ********************************

-----------------------
MULLIKEN ATOMIC CHARGES
-----------------------
   0 O :   -0.256894
   1 C :    0.145361
   2 N :   -0.217493
   3 C :    0.180719
   4 C :   -0.090342
   5 C :    0.128524
   6 N :   -0.137740
   7 H :   -0.021823
   8 H :    0.030533
   9 H :    0.032611
  10 H :    0.027733
  11 H :    0.028250
  12 H :    0.014084
  13 H :    0.026823
  14 H :    0.109655
Sum of atomic charges:    0.0000000

--------------------------------
MULLIKEN REDUCED ORBITAL CHARGES
--------------------------------
  0 O s       :     3.764660  s :     3.764660
      pz      :     1.705200  p :     4.474884
      px      :     1.451408
      py      :     1.318277
      dz2     :     0.002087  d :     0.017350
      dxz     :     0.000285
      dyz     :     0.004311
      dx2y2   :     0.005464
      dxy     :     0.005203
  1 C s       :     3.072560  s :     3.072560
      pz      :     0.891762  p :     2.677218
      px      :     0.894415
      py      :     0.891042
      dz2     :     0.015875  d :     0.104861
      dxz     :     0.010547
      dyz     :     0.042108
      dx2y2   :     0.015023
      dxy     :     0.021307
  2 N s       :     3.408904  s :     3.408904
      pz      :     1.096220  p :     3.770506
      px      :     1.567534
      py      :     1.106752
      dz2     :     0.008415  d :     0.038083
      dxz     :     0.008305
      dyz     :     0.011218
      dx2y2   :     0.005107
      dxy     :     0.005038
  3 C s       :     2.935055  s :     2.935055
      pz      :     0.981453  p :     2.839750
      px      :     1.033531
      py      :     0.824766
      dz2     :     0.007974  d :     0.044477
      dxz     :     0.006645
      dyz     :     0.009182
      dx2y2   :     0.009420
      dxy     :     0.011256
  4 C s       :     3.024866  s :     3.024866
      pz      :     1.010241  p :     3.035228
      px      :     1.009339
      py      :     1.015648
      dz2     :     0.007102  d :     0.030249
      dxz     :     0.006650
      dyz     :     0.004852
      dx2y2   :     0.005136
      dxy     :     0.006510
  5 C s       :     2.973171  s :     2.973171
      pz      :     0.960073  p :     2.851791
      px      :     0.922703
      py      :     0.969015
      dz2     :     0.010443  d :     0.046514
      dxz     :     0.007689
      dyz     :     0.008294
      dx2y2   :     0.012194
      dxy     :     0.007894
  6 N s       :     3.482777  s :     3.482777
      pz      :     1.037613  p :     3.623307
      px      :     1.550520
      py      :     1.035175
      dz2     :     0.006408  d :     0.031656
      dxz     :     0.006895
      dyz     :     0.008645
      dx2y2   :     0.004643
      dxy     :     0.005066
  7 H s       :     1.002139  s :     1.002139
      pz      :     0.008614  p :     0.019683
      px      :     0.003464
      py      :     0.007605
  8 H s       :     0.947242  s :     0.947242
      pz      :     0.007801  p :     0.022225
      px      :     0.008370
      py      :     0.006054
  9 H s       :     0.945553  s :     0.945553
      pz      :     0.004431  p :     0.021835
      px      :     0.012446
      py      :     0.004958
 10 H s       :     0.949497  s :     0.949497
      pz      :     0.004567  p :     0.022770
      px      :     0.011117
      py      :     0.007085
 11 H s       :     0.949104  s :     0.949104
      pz      :     0.008354  p :     0.022646
      px      :     0.008916
      py      :     0.005377
 12 H s       :     0.964400  s :     0.964400
      pz      :     0.004695  p :     0.021517
      px      :     0.012291
      py      :     0.004531
 13 H s       :     0.951414  s :     0.951414
      pz      :     0.012416  p :     0.021763
      px      :     0.004414
      py      :     0.004934
 14 H s       :     0.845925  s :     0.845925
      pz      :     0.009974  p :     0.044421
      px      :     0.012135
      py      :     0.022312


                     *******************************
                     * LOEWDIN POPULATION ANALYSIS *
                     *******************************

----------------------
LOEWDIN ATOMIC CHARGES
----------------------
   0 O :   -0.204203
   1 C :    0.020208
   2 N :    0.018678
   3 C :    0.034822
   4 C :   -0.049711
   5 C :    0.015957
   6 N :   -0.033129
   7 H :   -0.012594
   8 H :    0.028994
   9 H :    0.027207
  10 H :    0.031895
  11 H :    0.033303
  12 H :    0.008760
  13 H :    0.027081
  14 H :    0.052733

-------------------------------
LOEWDIN REDUCED ORBITAL CHARGES
-------------------------------
  0 O s       :     3.554819  s :     3.554819
      pz      :     1.707275  p :     4.618846
      px      :     1.450302
      py      :     1.461268
      dz2     :     0.004171  d :     0.030539
      dxz     :     0.000388
      dyz     :     0.007006
      dx2y2   :     0.011623
      dxy     :     0.007351
  1 C s       :     2.851143  s :     2.851143
      pz      :     0.968954  p :     2.874129
      px      :     0.895619
      py      :     1.009555
      dz2     :     0.042116  d :     0.254520
      dxz     :     0.024804
      dyz     :     0.105026
      dx2y2   :     0.038135
      dxy     :     0.044439
  2 N s       :     3.090942  s :     3.090942
      pz      :     1.151996  p :     3.805187
      px      :     1.522252
      py      :     1.130939
      dz2     :     0.020335  d :     0.085192
      dxz     :     0.016900
      dyz     :     0.028835
      dx2y2   :     0.010135
      dxy     :     0.008987
  3 C s       :     2.836575  s :     2.836575
      pz      :     1.025302  p :     3.016494
      px      :     1.080806
      py      :     0.910386
      dz2     :     0.022535  d :     0.112109
      dxz     :     0.016353
      dyz     :     0.021230
      dx2y2   :     0.023346
      dxy     :     0.028645
  4 C s       :     2.851414  s :     2.851414
      pz      :     1.020807  p :     3.117659
      px      :     1.068461
      py      :     1.028390
      dz2     :     0.020800  d :     0.080638
      dxz     :     0.017990
      dyz     :     0.010305
      dx2y2   :     0.014714
      dxy     :     0.016829
  5 C s       :     2.848392  s :     2.848392
      pz      :     1.016565  p :     3.022197
      px      :     1.001282
      py      :     1.004350
      dz2     :     0.027221  d :     0.113455
      dxz     :     0.018258
      dyz     :     0.017629
      dx2y2   :     0.033228
      dxy     :     0.017117
  6 N s       :     3.164671  s :     3.164671
      pz      :     1.111786  p :     3.799860
      px      :     1.574580
      py      :     1.113495
      dz2     :     0.012721  d :     0.068598
      dxz     :     0.014613
      dyz     :     0.022107
      dx2y2   :     0.009975
      dxy     :     0.009183
  7 H s       :     0.945212  s :     0.945212
      pz      :     0.028116  p :     0.067382
      px      :     0.010697
      py      :     0.028569
  8 H s       :     0.903058  s :     0.903058
      pz      :     0.024790  p :     0.067948
      px      :     0.024303
      py      :     0.018854
  9 H s       :     0.905293  s :     0.905293
      pz      :     0.013454  p :     0.067500
      px      :     0.038046
      py      :     0.016000
 10 H s       :     0.899377  s :     0.899377
      pz      :     0.014045  p :     0.068729
      px      :     0.033057
      py      :     0.021627
 11 H s       :     0.897796  s :     0.897796
      pz      :     0.025536  p :     0.068902
      px      :     0.026712
      py      :     0.016654
 12 H s       :     0.922896  s :     0.922896
      pz      :     0.013893  p :     0.068344
      px      :     0.040078
      py      :     0.014373
 13 H s       :     0.906514  s :     0.906514
      pz      :     0.038405  p :     0.066405
      px      :     0.012010
      py      :     0.015990
 14 H s       :     0.818302  s :     0.818302
      pz      :     0.028046  p :     0.128965
      px      :     0.038349
      py      :     0.062569


                      *****************************
                      * MAYER POPULATION ANALYSIS *
                      *****************************

  NA   - Mulliken gross atomic population
  ZA   - Total nuclear charge
  QA   - Mulliken gross atomic charge
  VA   - Mayer's total valence
  BVA  - Mayer's bonded valence
  FA   - Mayer's free valence

  ATOM       NA         ZA         QA         VA         BVA        FA
  0 O      8.2569     8.0000    -0.2569     2.2693     2.2693    -0.0000
  1 C      5.8546     6.0000     0.1454     4.1787     4.1787    -0.0000
  2 N      7.2175     7.0000    -0.2175     3.3313     3.3313     0.0000
  3 C      5.8193     6.0000     0.1807     3.9770     3.9770     0.0000
  4 C      6.0903     6.0000    -0.0903     4.1532     4.1532     0.0000
  5 C      5.8715     6.0000     0.1285     4.0382     4.0382     0.0000
  6 N      7.1377     7.0000    -0.1377     3.0544     3.0544     0.0000
  7 H      1.0218     1.0000    -0.0218     0.9946     0.9946    -0.0000
  8 H      0.9695     1.0000     0.0305     0.9899     0.9899     0.0000
  9 H      0.9674     1.0000     0.0326     0.9777     0.9777     0.0000
 10 H      0.9723     1.0000     0.0277     0.9793     0.9793     0.0000
 11 H      0.9717     1.0000     0.0283     0.9774     0.9774    -0.0000
 12 H      0.9859     1.0000     0.0141     0.9774     0.9774    -0.0000
 13 H      0.9732     1.0000     0.0268     0.9822     0.9822    -0.0000
 14 H      0.8903     1.0000     0.1097     1.0500     1.0500     0.0000

  Mayer bond orders larger than 0.1
B(  0-O ,  1-C ) :   1.9612 B(  0-O ,  2-N ) :   0.1093 B(  1-C ,  2-N ) :   1.2031 
B(  1-C ,  7-H ) :   0.9222 B(  2-N ,  3-C ) :   0.9734 B(  2-N ,  6-N ) :   0.9928 
B(  3-C ,  4-C ) :   1.0940 B(  3-C ,  8-H ) :   0.9386 B(  3-C ,  9-H ) :   0.9347 
B(  4-C ,  5-C ) :   1.1259 B(  4-C , 10-H ) :   0.9354 B(  4-C , 11-H ) :   0.9216 
B(  5-C ,  6-N ) :   0.9990 B(  5-C , 12-H ) :   0.9352 B(  5-C , 13-H ) :   0.9437 
B(  6-N , 14-H ) :   0.9194 


 *********************************** NBO 6.0 ***********************************
             N A T U R A L   A T O M I C   O R B I T A L   A N D
          N A T U R A L   B O N D   O R B I T A L   A N A L Y S I S
 ***************************** Kiya KiyaLu (100703) ****************************
  (c) Copyright 1996-2015 Board of Regents of the University of Wisconsin System
      on behalf of the Theoretical Chemistry Institute.  All rights reserved.

          Cite this program as:

          NBO 6.0.  E. D. Glendening, J. K. Badenhoop, A. E. Reed,
          J. E. Carpenter, J. A. Bohmann, C. M. Morales, C. R. Landis,
          and F. Weinhold (Theoretical Chemistry Institute, University
          of Wisconsin, Madison, WI, 2013); http://nbo6.chem.wisc.edu/

       /NPA    / : Natural Population Analysis
       /NBO    / : Natural Bond Orbital Analysis
       /AONBO  / : Write the AO to NBO transformation to lfn77
       /FILE   / : Set to 6777

 Filename set to 6777

 Job title:  *** NBO job generated by orca_scf

 Warning: MOs are non-orthogonal; program will continue

 Warning: -1291.14374 electrons reside outside the linearly independent MO space


 NATURAL POPULATIONS:  Natural atomic orbital occupancies

  NAO Atom No lang   Type(AO)    Occupancy      Energy
 -------------------------------------------------------
   1    O  1  s      Cor( 1s)     1.99976     -18.48349
   2    O  1  s      Val( 2s)     1.70132      -0.76926
   3    O  1  s      Ryd( 3s)     0.00193       1.39234
   4    O  1  px     Val( 2p)     1.50544      -0.20157
   5    O  1  px     Ryd( 3p)     0.00114       1.00676
   6    O  1  py     Val( 2p)     1.58916      -0.24523
   7    O  1  py     Ryd( 3p)     0.00080       1.03323
   8    O  1  pz     Val( 2p)     1.79819      -0.19191
   9    O  1  pz     Ryd( 3p)     0.00220       1.12548
  10    O  1  dxy    Ryd( 3d)     0.00205       2.77988
  11    O  1  dxz    Ryd( 3d)     0.00014       2.58795
  12    O  1  dyz    Ryd( 3d)     0.00197       2.84125
  13    O  1  dx2y2  Ryd( 3d)     0.00209       3.05603
  14    O  1  dz2    Ryd( 3d)     0.00086       2.75218

  15    C  2  s      Cor( 1s)     1.99933      -9.86243
  16    C  2  s      Val( 2s)     0.83009      -0.13038
  17    C  2  s      Ryd( 3s)     0.00764       0.44117
  18    C  2  px     Val( 2p)     0.85497      -0.11541
  19    C  2  px     Ryd( 3p)     0.00308       0.44838
  20    C  2  py     Val( 2p)     0.86325       0.00401
  21    C  2  py     Ryd( 3p)     0.01474       0.62105
  22    C  2  pz     Val( 2p)     0.94046      -0.02504
  23    C  2  pz     Ryd( 3p)     0.00436       0.55479
  24    C  2  dxy    Ryd( 3d)     0.00258       1.98772
  25    C  2  dxz    Ryd( 3d)     0.00113       1.94179
  26    C  2  dyz    Ryd( 3d)     0.00381       2.41789
  27    C  2  dx2y2  Ryd( 3d)     0.00151       2.22036
  28    C  2  dz2    Ryd( 3d)     0.00144       2.17288

  29    N  3  s      Cor( 1s)     1.99911     -13.90277
  30    N  3  s      Val( 2s)     1.18446      -0.46061
  31    N  3  s      Ryd( 3s)     0.00254       1.03454
  32    N  3  px     Val( 2p)     1.61870      -0.22935
  33    N  3  px     Ryd( 3p)     0.00337       0.91616
  34    N  3  py     Val( 2p)     1.23828      -0.23840
  35    N  3  py     Ryd( 3p)     0.00200       1.19823
  36    N  3  pz     Val( 2p)     1.25127      -0.24039
  37    N  3  pz     Ryd( 3p)     0.00216       1.13045
  38    N  3  dxy    Ryd( 3d)     0.00069       2.23968
  39    N  3  dxz    Ryd( 3d)     0.00123       2.32172
  40    N  3  dyz    Ryd( 3d)     0.00121       2.66282
  41    N  3  dx2y2  Ryd( 3d)     0.00096       2.45225
  42    N  3  dz2    Ryd( 3d)     0.00109       2.54346

  43    C  4  s      Cor( 1s)     1.99919      -9.82948
  44    C  4  s      Val( 2s)     1.00248      -0.21591
  45    C  4  s      Ryd( 3s)     0.00133       0.82395
  46    C  4  px     Val( 2p)     1.21760      -0.09340
  47    C  4  px     Ryd( 3p)     0.00327       0.67912
  48    C  4  py     Val( 2p)     0.91583      -0.08048
  49    C  4  py     Ryd( 3p)     0.00258       0.46104
  50    C  4  pz     Val( 2p)     1.08293      -0.10006
  51    C  4  pz     Ryd( 3p)     0.00412       0.53556
  52    C  4  dxy    Ryd( 3d)     0.00103       2.19363
  53    C  4  dxz    Ryd( 3d)     0.00073       2.13678
  54    C  4  dyz    Ryd( 3d)     0.00083       2.10620
  55    C  4  dx2y2  Ryd( 3d)     0.00098       2.17732
  56    C  4  dz2    Ryd( 3d)     0.00064       2.17173

  57    C  5  s      Cor( 1s)     1.99912      -9.79422
  58    C  5  s      Val( 2s)     1.03547      -0.22380
  59    C  5  s      Ryd( 3s)     0.00042       0.89906
  60    C  5  px     Val( 2p)     1.22017      -0.08439
  61    C  5  px     Ryd( 3p)     0.00363       0.74706
  62    C  5  py     Val( 2p)     1.10432      -0.09084
  63    C  5  py     Ryd( 3p)     0.00221       0.51740
  64    C  5  pz     Val( 2p)     1.09601      -0.09042
  65    C  5  pz     Ryd( 3p)     0.00187       0.52390
  66    C  5  dxy    Ryd( 3d)     0.00057       2.22866
  67    C  5  dxz    Ryd( 3d)     0.00060       2.22273
  68    C  5  dyz    Ryd( 3d)     0.00042       1.98719
  69    C  5  dx2y2  Ryd( 3d)     0.00054       2.15951
  70    C  5  dz2    Ryd( 3d)     0.00062       2.17527

  71    C  6  s      Cor( 1s)     1.99917      -9.81721
  72    C  6  s      Val( 2s)     1.01326      -0.21574
  73    C  6  s      Ryd( 3s)     0.00100       0.82616
  74    C  6  px     Val( 2p)     1.07149      -0.07551
  75    C  6  px     Ryd( 3p)     0.00251       0.57540
  76    C  6  py     Val( 2p)     1.02043      -0.09139
  77    C  6  py     Ryd( 3p)     0.00207       0.48146
  78    C  6  pz     Val( 2p)     1.11842      -0.08306
  79    C  6  pz     Ryd( 3p)     0.00355       0.64056
  80    C  6  dxy    Ryd( 3d)     0.00074       2.06194
  81    C  6  dxz    Ryd( 3d)     0.00091       2.15729
  82    C  6  dyz    Ryd( 3d)     0.00079       2.08232
  83    C  6  dx2y2  Ryd( 3d)     0.00113       2.23846
  84    C  6  dz2    Ryd( 3d)     0.00096       2.27321

  85    N  7  s      Cor( 1s)     1.99940     -13.87122
  86    N  7  s      Val( 2s)     1.36185      -0.49483
  87    N  7  s      Ryd( 3s)     0.00101       1.10648
  88    N  7  px     Val( 2p)     1.67423      -0.20581
  89    N  7  px     Ryd( 3p)     0.00576       0.84322
  90    N  7  py     Val( 2p)     1.27832      -0.18741
  91    N  7  py     Ryd( 3p)     0.00288       0.95500
  92    N  7  pz     Val( 2p)     1.16578      -0.17955
  93    N  7  pz     Ryd( 3p)     0.00477       0.93056
  94    N  7  dxy    Ryd( 3d)     0.00128       2.43526
  95    N  7  dxz    Ryd( 3d)     0.00163       2.40584
  96    N  7  dyz    Ryd( 3d)     0.00119       2.65329
  97    N  7  dx2y2  Ryd( 3d)     0.00129       2.53078
  98    N  7  dz2    Ryd( 3d)     0.00099       2.44832

  99    H  8  s      Val( 1s)     0.86550       0.01311
 100    H  8  s      Ryd( 2s)     0.00500       0.33782
 101    H  8  px     Ryd( 2p)     0.00015       1.59594
 102    H  8  py     Ryd( 2p)     0.00040       2.04546
 103    H  8  pz     Ryd( 2p)     0.00061       2.01335

 104    H  9  s      Val( 1s)     0.76631       0.04754
 105    H  9  s      Ryd( 2s)     0.00243       0.31440
 106    H  9  px     Ryd( 2p)     0.00040       1.92374
 107    H  9  py     Ryd( 2p)     0.00032       1.86250
 108    H  9  pz     Ryd( 2p)     0.00038       1.90144

 109    H 10  s      Val( 1s)     0.77074       0.05800
 110    H 10  s      Ryd( 2s)     0.00307       0.30051
 111    H 10  px     Ryd( 2p)     0.00087       2.14968
 112    H 10  py     Ryd( 2p)     0.00020       1.84558
 113    H 10  pz     Ryd( 2p)     0.00011       1.72579

 114    H 11  s      Val( 1s)     0.75899       0.06181
 115    H 11  s      Ryd( 2s)     0.00223       0.30679
 116    H 11  px     Ryd( 2p)     0.00065       2.11203
 117    H 11  py     Ryd( 2p)     0.00033       1.88797
 118    H 11  pz     Ryd( 2p)     0.00012       1.73082

 119    H 12  s      Val( 1s)     0.76095       0.06452
 120    H 12  s      Ryd( 2s)     0.00320       0.31358
 121    H 12  px     Ryd( 2p)     0.00046       1.99324
 122    H 12  py     Ryd( 2p)     0.00016       1.78972
 123    H 12  pz     Ryd( 2p)     0.00045       1.95081

 124    H 13  s      Val( 1s)     0.79765       0.05064
 125    H 13  s      Ryd( 2s)     0.00424       0.32192
 126    H 13  px     Ryd( 2p)     0.00083       2.18910
 127    H 13  py     Ryd( 2p)     0.00019       1.70897
 128    H 13  pz     Ryd( 2p)     0.00016       1.81482

 129    H 14  s      Val( 1s)     0.76579       0.06554
 130    H 14  s      Ryd( 2s)     0.00174       0.29976
 131    H 14  px     Ryd( 2p)     0.00012       1.76424
 132    H 14  py     Ryd( 2p)     0.00019       1.74290
 133    H 14  pz     Ryd( 2p)     0.00084       2.20128

 134    H 15  s      Val( 1s)     0.59700       0.08555
 135    H 15  s      Ryd( 2s)     0.00585       0.42216
 136    H 15  px     Ryd( 2p)     0.00065       1.72477
 137    H 15  py     Ryd( 2p)     0.00141       2.26987
 138    H 15  pz     Ryd( 2p)     0.00047       1.80297


 Summary of Natural Population Analysis:

                                     Natural Population
             Natural    ---------------------------------------------
  Atom No    Charge        Core      Valence    Rydberg      Total
 --------------------------------------------------------------------
    O  1   -0.60707      1.99976     6.59411    0.01320     8.60707
    C  2    0.47161      1.99933     3.48877    0.04029     5.52839
    N  3   -0.30707      1.99911     5.29271    0.01525     7.30707
    C  4   -0.23354      1.99919     4.21884    0.01552     6.23354
    C  5   -0.46598      1.99912     4.45598    0.01088     6.46598
    C  6   -0.23643      1.99917     4.22359    0.01367     6.23643
    N  7   -0.50039      1.99940     5.48018    0.02080     7.50039
    H  8    0.12834      0.00000     0.86550    0.00617     0.87166
    H  9    0.23016      0.00000     0.76631    0.00353     0.76984
    H 10    0.22502      0.00000     0.77074    0.00424     0.77498
    H 11    0.23769      0.00000     0.75899    0.00332     0.76231
    H 12    0.23478      0.00000     0.76095    0.00427     0.76522
    H 13    0.19695      0.00000     0.79765    0.00540     0.80305
    H 14    0.23132      0.00000     0.76579    0.00289     0.76868
    H 15    0.39461      0.00000     0.59700    0.00839     0.60539
 ====================================================================
 * Total *  0.00000     13.99509    39.83711    0.16780    54.00000

                                 Natural Population
 ---------------------------------------------------------
   Core                      13.99509 ( 99.9649% of   14)
   Valence                   39.83711 ( 99.5928% of   40)
   Natural Minimal Basis     53.83220 ( 99.6893% of   54)
   Natural Rydberg Basis      0.16780 (  0.3107% of   54)
 ---------------------------------------------------------

    Atom No         Natural Electron Configuration
 ----------------------------------------------------------------------------
      O  1      [core]2s( 1.70)2p( 4.89)3d( 0.01)
      C  2      [core]2s( 0.83)2p( 2.66)3s( 0.01)3p( 0.02)3d( 0.01)
      N  3      [core]2s( 1.18)2p( 4.11)3p( 0.01)3d( 0.01)
      C  4      [core]2s( 1.00)2p( 3.22)3p( 0.01)
      C  5      [core]2s( 1.04)2p( 3.42)3p( 0.01)
      C  6      [core]2s( 1.01)2p( 3.21)3p( 0.01)
      N  7      [core]2s( 1.36)2p( 4.12)3p( 0.01)3d( 0.01)
      H  8            1s( 0.87)2s( 0.01)
      H  9            1s( 0.77)
      H 10            1s( 0.77)
      H 11            1s( 0.76)
      H 12            1s( 0.76)
      H 13            1s( 0.80)
      H 14            1s( 0.77)
      H 15            1s( 0.60)2s( 0.01)


 NATURAL BOND ORBITAL ANALYSIS:

                            Occupancies       Lewis Structure    Low   High
         Max    Occ     -------------------  -----------------   occ   occ
  Cycle  Ctr   Thresh    Lewis   non-Lewis     CR  BD  nC  LP    (L)   (NL)
 ============================================================================
    1     2     1.90    52.88581   1.11419      7  16   0   4     2      2
    2     2     1.89    52.88581   1.11419      7  16   0   4     2      2
    3     2     1.88    52.88581   1.11419      7  18   0   2     1      2
    4     2     1.83    53.11919   0.88081      7  16   0   4     1      1
    5     2     1.70    53.11919   0.88081      7  16   0   4     1      1
    6     2     1.67    53.11919   0.88081      7  16   0   4     1      1
    7     2     1.64    53.12093   0.87907      7  16   0   4     0      1
 ----------------------------------------------------------------------------

 Structure accepted: No low occupancy Lewis orbitals

 -------------------------------------------------------
   Core                     13.99509 ( 99.965% of  14)
   Valence Lewis            39.12584 ( 97.815% of  40)
  ==================      =============================
   Total Lewis              53.12093 ( 98.372% of  54)
  -----------------------------------------------------
   Valence non-Lewis         0.76654 (  1.420% of  54)
   Rydberg non-Lewis         0.11254 (  0.208% of  54)
  ==================      =============================
   Total non-Lewis           0.87907 (  1.628% of  54)
 -------------------------------------------------------


     (Occupancy)   Bond orbital / Coefficients / Hybrids
 ------------------ Lewis ------------------------------------------------------
   1. (1.99976) CR ( 1) O  1            s(100.00%)
                                         1.0000  0.0000  0.0000  0.0000  0.0000
                                         0.0000  0.0000  0.0000  0.0000  0.0000
                                         0.0000  0.0000  0.0000  0.0000
   2. (1.99933) CR ( 1) C  2            s(100.00%)
                                         1.0000  0.0000  0.0000  0.0000  0.0000
                                         0.0000  0.0000  0.0000  0.0000  0.0000
                                         0.0000  0.0000  0.0000  0.0000
   3. (1.99911) CR ( 1) N  3            s(100.00%)
                                         1.0000  0.0000  0.0000  0.0000  0.0000
                                         0.0000  0.0000  0.0000  0.0000  0.0000
                                         0.0000  0.0000  0.0000  0.0000
   4. (1.99919) CR ( 1) C  4            s(100.00%)
                                         1.0000  0.0000  0.0000  0.0000  0.0000
                                         0.0000  0.0000  0.0000  0.0000  0.0000
                                         0.0000  0.0000  0.0000  0.0000
   5. (1.99912) CR ( 1) C  5            s(100.00%)
                                         1.0000  0.0000  0.0000  0.0000  0.0000
                                         0.0000  0.0000  0.0000  0.0000  0.0000
                                         0.0000  0.0000  0.0000  0.0000
   6. (1.99917) CR ( 1) C  6            s(100.00%)
                                         1.0000  0.0000  0.0000  0.0000  0.0000
                                         0.0000  0.0000  0.0000  0.0000  0.0000
                                         0.0000  0.0000  0.0000  0.0000
   7. (1.99940) CR ( 1) N  7            s(100.00%)
                                         1.0000  0.0000  0.0000  0.0000  0.0000
                                         0.0000  0.0000  0.0000  0.0000  0.0000
                                         0.0000  0.0000  0.0000  0.0000
   8. (1.98085) LP ( 1) O  1            s( 58.61%)p 0.71( 41.36%)d 0.00(  0.03%)
                                         0.0000  0.7654 -0.0160  0.0978 -0.0005
                                        -0.6211  0.0016  0.1353 -0.0001  0.0043
                                        -0.0020  0.0062  0.0134  0.0057
   9. (1.83248) LP ( 2) O  1            s(  0.06%)p99.99( 99.83%)d 1.74(  0.11%)
                                         0.0000  0.0229 -0.0097 -0.2500  0.0028
                                        -0.2164  0.0014 -0.9427  0.0146 -0.0069
                                         0.0066 -0.0281  0.0081  0.0113
  10. (1.64722) LP ( 1) N  3            s(  2.05%)p47.75( 97.93%)d 0.01(  0.02%)
                                         0.0000  0.1421  0.0176 -0.9594 -0.0132
                                        -0.0166  0.0037  0.2414  0.0103  0.0021
                                        -0.0022 -0.0024 -0.0105  0.0073
  11. (1.91724) LP ( 1) N  7            s( 23.20%)p 3.31( 76.73%)d 0.00(  0.07%)
                                         0.0000  0.4817 -0.0049 -0.8090 -0.0303
                                         0.0302  0.0061 -0.3325 -0.0179 -0.0021
                                        -0.0177 -0.0013 -0.0190  0.0058
  12. (1.99722) BD ( 1) O  1- C  2
               ( 68.46%)   0.8274* O  1 s(  3.85%)p24.96( 96.00%)d 0.04(  0.15%)
                                         0.0000  0.1959  0.0087  0.8782  0.0104
                                         0.3137  0.0082 -0.3002 -0.0031  0.0306
                                        -0.0052 -0.0146 -0.0190 -0.0026
               ( 31.54%)   0.5616* C  2 s(  2.97%)p32.62( 96.75%)d 0.10(  0.29%)
                                         0.0000  0.1720  0.0081  0.9484 -0.0320
                                        -0.1452 -0.0211 -0.2122  0.0220 -0.0512
                                         0.0030  0.0127  0.0008 -0.0087
  13. (1.99337) BD ( 2) O  1- C  2
               ( 65.65%)   0.8103* O  1 s( 37.55%)p 1.66( 62.27%)d 0.00(  0.18%)
                                         0.0000  0.6121  0.0283 -0.3937 -0.0064
                                         0.6825  0.0211 -0.0378 -0.0014 -0.0211
                                         0.0032 -0.0098 -0.0292 -0.0202
               ( 34.35%)   0.5860* C  2 s( 30.67%)p 2.25( 69.13%)d 0.01(  0.20%)
                                         0.0000  0.5515  0.0504 -0.1776  0.0254
                                        -0.7856 -0.0569  0.1954  0.0234  0.0065
                                         0.0005 -0.0119 -0.0380 -0.0185
  14. (1.98942) BD ( 1) C  2- N  3
               ( 35.23%)   0.5935* C  2 s( 32.64%)p 2.06( 67.20%)d 0.00(  0.16%)
                                         0.0000  0.5711  0.0164 -0.2281 -0.0182
                                         0.2672  0.0126 -0.7400 -0.0228 -0.0055
                                         0.0186 -0.0205 -0.0037  0.0282
               ( 64.77%)   0.8048* N  3 s( 38.37%)p 1.60( 61.59%)d 0.00(  0.04%)
                                         0.0000  0.6194  0.0063  0.2667  0.0028
                                        -0.2995  0.0022  0.6745 -0.0129 -0.0054
                                         0.0134 -0.0104 -0.0025  0.0094
  15. (1.97937) BD ( 1) C  2- H  8
               ( 58.28%)   0.7634* C  2 s( 33.80%)p 1.96( 66.15%)d 0.00(  0.05%)
                                         0.0000  0.5802 -0.0367  0.1110  0.0039
                                         0.5327 -0.0293  0.6038  0.0067  0.0028
                                        -0.0003  0.0195 -0.0088  0.0005
               ( 41.72%)   0.6459* H  8 s( 99.90%)p 0.00(  0.10%)
                                         0.9994 -0.0151 -0.0037 -0.0191 -0.0244
  16. (1.98501) BD ( 1) N  3- C  4
               ( 63.06%)   0.7941* N  3 s( 33.83%)p 1.95( 66.13%)d 0.00(  0.04%)
                                         0.0000  0.5816 -0.0069  0.0236  0.0088
                                         0.7893  0.0051 -0.1935 -0.0174  0.0066
                                         0.0001 -0.0094 -0.0155 -0.0022
               ( 36.94%)   0.6078* C  4 s( 22.59%)p 3.42( 77.28%)d 0.01(  0.14%)
                                         0.0000  0.4751  0.0109 -0.0726 -0.0185
                                        -0.8220 -0.0221  0.3009  0.0218  0.0028
                                        -0.0010 -0.0169 -0.0307 -0.0126
  17. (1.98521) BD ( 1) N  3- N  7
               ( 52.98%)   0.7278* N  3 s( 25.67%)p 2.89( 74.25%)d 0.00(  0.09%)
                                         0.0000  0.5066  0.0042 -0.0839  0.0194
                                        -0.5350  0.0227 -0.6695  0.0106 -0.0024
                                        -0.0014  0.0209 -0.0131  0.0153
               ( 47.02%)   0.6857* N  7 s( 22.12%)p 3.51( 77.72%)d 0.01(  0.16%)
                                         0.0000  0.4702  0.0135 -0.0004  0.0256
                                         0.4970 -0.0128  0.7266 -0.0372  0.0119
                                         0.0127  0.0263 -0.0130  0.0206
  18. (1.97786) BD ( 1) C  4- C  5
               ( 50.47%)   0.7104* C  4 s( 28.21%)p 2.54( 71.74%)d 0.00(  0.04%)
                                         0.0000  0.5312  0.0018  0.3235 -0.0019
                                        -0.0088  0.0226 -0.7824  0.0055 -0.0024
                                        -0.0121  0.0076  0.0007  0.0141
               ( 49.53%)   0.7038* C  5 s( 26.15%)p 2.82( 73.81%)d 0.00(  0.04%)
                                         0.0000  0.5114  0.0012 -0.3078 -0.0003
                                         0.1193  0.0272  0.7927  0.0005  0.0005
                                        -0.0124 -0.0017  0.0005  0.0168
  19. (1.98209) BD ( 1) C  4- H  9
               ( 61.74%)   0.7857* C  4 s( 24.72%)p 3.04( 75.24%)d 0.00(  0.04%)
                                         0.0000  0.4972 -0.0045  0.5114 -0.0152
                                         0.4409  0.0091  0.5442 -0.0069  0.0090
                                         0.0135  0.0085  0.0041  0.0038
               ( 38.26%)   0.6186* H  9 s( 99.89%)p 0.00(  0.11%)
                                         0.9995 -0.0033 -0.0189 -0.0189 -0.0193
  20. (1.98277) BD ( 1) C  4- H 10
               ( 61.82%)   0.7863* C  4 s( 24.44%)p 3.09( 75.52%)d 0.00(  0.03%)
                                         0.0000  0.4944 -0.0016 -0.7922  0.0112
                                         0.3569  0.0022  0.0041  0.0127 -0.0097
                                         0.0006  0.0004  0.0123 -0.0086
               ( 38.18%)   0.6179* H 10 s( 99.88%)p 0.00(  0.12%)
                                         0.9994 -0.0064  0.0310 -0.0143 -0.0003
  21. (1.97919) BD ( 1) C  5- C  6
               ( 50.42%)   0.7101* C  5 s( 27.04%)p 2.70( 72.92%)d 0.00(  0.04%)
                                         0.0000  0.5200  0.0018  0.1705  0.0144
                                        -0.8235  0.0018 -0.1452 -0.0240 -0.0043
                                        -0.0015 -0.0004 -0.0173 -0.0089
               ( 49.58%)   0.7041* C  6 s( 27.97%)p 2.57( 71.98%)d 0.00(  0.04%)
                                         0.0000  0.5289 -0.0007 -0.1119  0.0108
                                         0.8392 -0.0009  0.0478 -0.0252 -0.0087
                                        -0.0031  0.0072 -0.0151 -0.0089
  22. (1.98135) BD ( 1) C  5- H 11
               ( 62.01%)   0.7875* C  5 s( 23.65%)p 3.23( 76.32%)d 0.00(  0.03%)
                                         0.0000  0.4863  0.0011  0.7254 -0.0115
                                         0.4755  0.0039 -0.1036 -0.0099  0.0130
                                        -0.0022 -0.0003  0.0075 -0.0089
               ( 37.99%)   0.6164* H 11 s( 99.89%)p 0.00(  0.11%)
                                         0.9995 -0.0021 -0.0268 -0.0179  0.0053
  23. (1.98094) BD ( 1) C  5- H 12
               ( 61.98%)   0.7873* C  5 s( 23.07%)p 3.33( 76.89%)d 0.00(  0.03%)
                                         0.0000  0.4804 -0.0026 -0.5910  0.0144
                                         0.2838  0.0086 -0.5821 -0.0024 -0.0064
                                         0.0146 -0.0048  0.0071  0.0013
               ( 38.02%)   0.6166* H 12 s( 99.89%)p 0.00(  0.11%)
                                         0.9995 -0.0036  0.0211 -0.0109  0.0225
  24. (1.98508) BD ( 1) C  6- N  7
               ( 39.37%)   0.6275* C  6 s( 22.64%)p 3.41( 77.23%)d 0.01(  0.13%)
                                         0.0000  0.4756  0.0147 -0.5759 -0.0235
                                        -0.4058 -0.0361  0.5236 -0.0010  0.0147
                                        -0.0278 -0.0135  0.0084  0.0028
               ( 60.63%)   0.7787* N  7 s( 30.28%)p 2.30( 69.65%)d 0.00(  0.08%)
                                         0.0000  0.5502 -0.0032  0.5625  0.0040
                                         0.2828  0.0200 -0.5469  0.0251  0.0151
                                        -0.0185 -0.0048  0.0084 -0.0109
  25. (1.98756) BD ( 1) C  6- H 13
               ( 60.77%)   0.7795* C  6 s( 24.58%)p 3.07( 75.38%)d 0.00(  0.04%)
                                         0.0000  0.4956 -0.0137  0.7989 -0.0023
                                        -0.2209 -0.0085  0.2574 -0.0226 -0.0058
                                         0.0111 -0.0022  0.0129 -0.0063
               ( 39.23%)   0.6263* H 13 s( 99.89%)p 0.00(  0.11%)
                                         0.9994 -0.0089 -0.0317  0.0081 -0.0081
  26. (1.97965) BD ( 1) C  6- H 14
               ( 61.74%)   0.7858* C  6 s( 24.76%)p 3.04( 75.20%)d 0.00(  0.03%)
                                         0.0000  0.4976  0.0058 -0.1257  0.0087
                                        -0.2838 -0.0024 -0.8096  0.0147  0.0020
                                         0.0071  0.0089 -0.0024  0.0139
               ( 38.26%)   0.6185* H 14 s( 99.89%)p 0.00(  0.11%)
                                         0.9994 -0.0028  0.0047  0.0107  0.0318
  27. (1.98198) BD ( 1) N  7- H 15
               ( 70.74%)   0.8411* N  7 s( 24.34%)p 3.11( 75.58%)d 0.00(  0.08%)
                                         0.0000  0.4933  0.0035  0.1634  0.0165
                                        -0.8186  0.0211  0.2415  0.0065 -0.0209
                                         0.0065 -0.0154 -0.0086 -0.0029
               ( 29.26%)   0.5409* H 15 s( 99.74%)p 0.00(  0.26%)
                                         0.9986 -0.0150 -0.0065  0.0488 -0.0145
 ---------------- non-Lewis ----------------------------------------------------
  28. (0.32383) BD*( 1) O  1- C  2
               ( 31.54%)   0.5616* O  1 s(  3.85%)p24.96( 96.00%)d 0.04(  0.15%)
                                         0.0000 -0.1959 -0.0087 -0.8782 -0.0104
                                        -0.3137 -0.0082  0.3002  0.0031 -0.0306
                                         0.0052  0.0146  0.0190  0.0026
               ( 68.46%)  -0.8274* C  2 s(  2.97%)p32.62( 96.75%)d 0.10(  0.29%)
                                         0.0000 -0.1720 -0.0081 -0.9484  0.0320
                                         0.1452  0.0211  0.2122 -0.0220  0.0512
                                        -0.0030 -0.0127 -0.0008  0.0087
  29. (0.03609) BD*( 2) O  1- C  2
               ( 34.35%)   0.5860* O  1 s( 37.55%)p 1.66( 62.27%)d 0.00(  0.18%)
                                         0.0000 -0.6121 -0.0283  0.3937  0.0064
                                        -0.6825 -0.0211  0.0378  0.0014  0.0211
                                        -0.0032  0.0098  0.0292  0.0202
               ( 65.65%)  -0.8103* C  2 s( 30.67%)p 2.25( 69.13%)d 0.01(  0.20%)
                                         0.0000 -0.5515 -0.0504  0.1776 -0.0254
                                         0.7856  0.0569 -0.1954 -0.0234 -0.0065
                                        -0.0005  0.0119  0.0380  0.0185
  30. (0.08378) BD*( 1) C  2- N  3
               ( 64.77%)   0.8048* C  2 s( 32.64%)p 2.06( 67.20%)d 0.00(  0.16%)
                                         0.0000  0.5711  0.0164 -0.2281 -0.0182
                                         0.2672  0.0126 -0.7400 -0.0228 -0.0055
                                         0.0186 -0.0205 -0.0037  0.0282
               ( 35.23%)  -0.5935* N  3 s( 38.37%)p 1.60( 61.59%)d 0.00(  0.04%)
                                         0.0000  0.6194  0.0063  0.2667  0.0028
                                        -0.2995  0.0022  0.6745 -0.0129 -0.0054
                                         0.0134 -0.0104 -0.0025  0.0094
  31. (0.06941) BD*( 1) C  2- H  8
               ( 41.72%)   0.6459* C  2 s( 33.80%)p 1.96( 66.15%)d 0.00(  0.05%)
                                         0.0000 -0.5802  0.0367 -0.1110 -0.0039
                                        -0.5327  0.0293 -0.6038 -0.0067 -0.0028
                                         0.0003 -0.0195  0.0088 -0.0005
               ( 58.28%)  -0.7634* H  8 s( 99.90%)p 0.00(  0.10%)
                                        -0.9994  0.0151  0.0037  0.0191  0.0244
  32. (0.02945) BD*( 1) N  3- C  4
               ( 36.94%)   0.6078* N  3 s( 33.83%)p 1.95( 66.13%)d 0.00(  0.04%)
                                         0.0000 -0.5816  0.0069 -0.0236 -0.0088
                                        -0.7893 -0.0051  0.1935  0.0174 -0.0066
                                        -0.0001  0.0094  0.0155  0.0022
               ( 63.06%)  -0.7941* C  4 s( 22.59%)p 3.42( 77.28%)d 0.01(  0.14%)
                                         0.0000 -0.4751 -0.0109  0.0726  0.0185
                                         0.8220  0.0221 -0.3009 -0.0218 -0.0028
                                         0.0010  0.0169  0.0307  0.0126
  33. (0.03817) BD*( 1) N  3- N  7
               ( 47.02%)   0.6857* N  3 s( 25.67%)p 2.89( 74.25%)d 0.00(  0.09%)
                                         0.0000  0.5066  0.0042 -0.0839  0.0194
                                        -0.5350  0.0227 -0.6695  0.0106 -0.0024
                                        -0.0014  0.0209 -0.0131  0.0153
               ( 52.98%)  -0.7278* N  7 s( 22.12%)p 3.51( 77.72%)d 0.01(  0.16%)
                                         0.0000  0.4702  0.0135 -0.0004  0.0256
                                         0.4970 -0.0128  0.7266 -0.0372  0.0119
                                         0.0127  0.0263 -0.0130  0.0206
  34. (0.01822) BD*( 1) C  4- C  5
               ( 49.53%)   0.7038* C  4 s( 28.21%)p 2.54( 71.74%)d 0.00(  0.04%)
                                         0.0000  0.5312  0.0018  0.3235 -0.0019
                                        -0.0088  0.0226 -0.7824  0.0055 -0.0024
                                        -0.0121  0.0076  0.0007  0.0141
               ( 50.47%)  -0.7104* C  5 s( 26.15%)p 2.82( 73.81%)d 0.00(  0.04%)
                                         0.0000  0.5114  0.0012 -0.3078 -0.0003
                                         0.1193  0.0272  0.7927  0.0005  0.0005
                                        -0.0124 -0.0017  0.0005  0.0168
  35. (0.01418) BD*( 1) C  4- H  9
               ( 38.26%)   0.6186* C  4 s( 24.72%)p 3.04( 75.24%)d 0.00(  0.04%)
                                         0.0000 -0.4972  0.0045 -0.5114  0.0152
                                        -0.4409 -0.0091 -0.5442  0.0069 -0.0090
                                        -0.0135 -0.0085 -0.0041 -0.0038
               ( 61.74%)  -0.7857* H  9 s( 99.89%)p 0.00(  0.11%)
                                        -0.9995  0.0033  0.0189  0.0189  0.0193
  36. (0.02370) BD*( 1) C  4- H 10
               ( 38.18%)   0.6179* C  4 s( 24.44%)p 3.09( 75.52%)d 0.00(  0.03%)
                                         0.0000 -0.4944  0.0016  0.7922 -0.0112
                                        -0.3569 -0.0022 -0.0041 -0.0127  0.0097
                                        -0.0006 -0.0004 -0.0123  0.0086
               ( 61.82%)  -0.7863* H 10 s( 99.88%)p 0.00(  0.12%)
                                        -0.9994  0.0064 -0.0310  0.0143  0.0003
  37. (0.01344) BD*( 1) C  5- C  6
               ( 49.58%)   0.7041* C  5 s( 27.04%)p 2.70( 72.92%)d 0.00(  0.04%)
                                         0.0000 -0.5200 -0.0018 -0.1705 -0.0144
                                         0.8235 -0.0018  0.1452  0.0240  0.0043
                                         0.0015  0.0004  0.0173  0.0089
               ( 50.42%)  -0.7101* C  6 s( 27.97%)p 2.57( 71.98%)d 0.00(  0.04%)
                                         0.0000 -0.5289  0.0007  0.1119 -0.0108
                                        -0.8392  0.0009 -0.0478  0.0252  0.0087
                                         0.0031 -0.0072  0.0151  0.0089
  38. (0.01138) BD*( 1) C  5- H 11
               ( 37.99%)   0.6164* C  5 s( 23.65%)p 3.23( 76.32%)d 0.00(  0.03%)
                                         0.0000 -0.4863 -0.0011 -0.7254  0.0115
                                        -0.4755 -0.0039  0.1036  0.0099 -0.0130
                                         0.0022  0.0003 -0.0075  0.0089
               ( 62.01%)  -0.7875* H 11 s( 99.89%)p 0.00(  0.11%)
                                        -0.9995  0.0021  0.0268  0.0179 -0.0053
  39. (0.01395) BD*( 1) C  5- H 12
               ( 38.02%)   0.6166* C  5 s( 23.07%)p 3.33( 76.89%)d 0.00(  0.03%)
                                         0.0000 -0.4804  0.0026  0.5910 -0.0144
                                        -0.2838 -0.0086  0.5821  0.0024  0.0064
                                        -0.0146  0.0048 -0.0071 -0.0013
               ( 61.98%)  -0.7873* H 12 s( 99.89%)p 0.00(  0.11%)
                                        -0.9995  0.0036 -0.0211  0.0109 -0.0225
  40. (0.01903) BD*( 1) C  6- N  7
               ( 60.63%)   0.7787* C  6 s( 22.64%)p 3.41( 77.23%)d 0.01(  0.13%)
                                         0.0000  0.4756  0.0147 -0.5759 -0.0235
                                        -0.4058 -0.0361  0.5236 -0.0010  0.0147
                                        -0.0278 -0.0135  0.0084  0.0028
               ( 39.37%)  -0.6275* N  7 s( 30.28%)p 2.30( 69.65%)d 0.00(  0.08%)
                                         0.0000  0.5502 -0.0032  0.5625  0.0040
                                         0.2828  0.0200 -0.5469  0.0251  0.0151
                                        -0.0185 -0.0048  0.0084 -0.0109
  41. (0.03085) BD*( 1) C  6- H 13
               ( 39.23%)   0.6263* C  6 s( 24.58%)p 3.07( 75.38%)d 0.00(  0.04%)
                                         0.0000 -0.4956  0.0137 -0.7989  0.0023
                                         0.2209  0.0085 -0.2574  0.0226  0.0058
                                        -0.0111  0.0022 -0.0129  0.0063
               ( 60.77%)  -0.7795* H 13 s( 99.89%)p 0.00(  0.11%)
                                        -0.9994  0.0089  0.0317 -0.0081  0.0081
  42. (0.01508) BD*( 1) C  6- H 14
               ( 38.26%)   0.6185* C  6 s( 24.76%)p 3.04( 75.20%)d 0.00(  0.03%)
                                         0.0000 -0.4976 -0.0058  0.1257 -0.0087
                                         0.2838  0.0024  0.8096 -0.0147 -0.0020
                                        -0.0071 -0.0089  0.0024 -0.0139
               ( 61.74%)  -0.7858* H 14 s( 99.89%)p 0.00(  0.11%)
                                        -0.9994  0.0028 -0.0047 -0.0107 -0.0318
  43. (0.02598) BD*( 1) N  7- H 15
               ( 29.26%)   0.5409* N  7 s( 24.34%)p 3.11( 75.58%)d 0.00(  0.08%)
                                         0.0000 -0.4933 -0.0035 -0.1634 -0.0165
                                         0.8186 -0.0211 -0.2415 -0.0065  0.0209
                                        -0.0065  0.0154  0.0086  0.0029
               ( 70.74%)  -0.8411* H 15 s( 99.74%)p 0.00(  0.26%)
                                        -0.9986  0.0150  0.0065 -0.0488  0.0145
  44. (0.00190) RY ( 1) O  1            s(  0.69%)p99.99( 97.32%)d 2.86(  1.99%)
                                         0.0000 -0.0004  0.0833 -0.0083  0.1158
                                        -0.0069 -0.0913 -0.0080 -0.9753  0.0326
                                        -0.0014 -0.1358 -0.0018  0.0190
  45. (0.00122) RY ( 2) O  1            s(  0.77%)p99.99( 95.39%)d 4.97(  3.84%)
                                         0.0000 -0.0008  0.0879  0.0173 -0.9635
                                        -0.0015 -0.1208 -0.0078 -0.1028 -0.1661
                                         0.0775  0.0093  0.0687 -0.0051
  46. (0.00020) RY ( 3) O  1            s( 45.07%)p 1.10( 49.38%)d 0.12(  5.55%)
                                         0.0000 -0.0174  0.6711  0.0046 -0.0247
                                        -0.0378  0.7010  0.0079  0.0183 -0.0542
                                        -0.0136 -0.2257 -0.0330 -0.0181
  47. (0.00004) RY ( 4) O  1            s( 35.72%)p 0.76( 27.22%)d 1.04( 37.06%)
  48. (0.00001) RY ( 5) O  1            s( 14.39%)p 1.29( 18.59%)d 4.66( 67.02%)
  49. (0.00001) RY ( 6) O  1            s(  0.23%)p26.84(  6.05%)d99.99( 93.73%)
  50. (0.00000) RY ( 7) O  1            s(  1.17%)p 2.41(  2.81%)d82.22( 96.02%)
  51. (0.00000) RY ( 8) O  1            s(  1.88%)p 1.25(  2.34%)d51.06( 95.78%)
  52. (0.00000) RY ( 9) O  1            s(  0.01%)p99.99(  1.44%)d99.99( 98.55%)
  53. (0.01341) RY ( 1) C  2            s(  4.09%)p21.95( 89.81%)d 1.49(  6.10%)
                                         0.0000 -0.0442  0.1974 -0.0155  0.1709
                                         0.0521 -0.8890 -0.0438  0.2714  0.0659
                                        -0.0486  0.2240 -0.0267 -0.0584
  54. (0.00861) RY ( 2) C  2            s( 41.70%)p 0.46( 19.36%)d 0.93( 38.94%)
                                         0.0000 -0.0180  0.6455  0.0150 -0.0923
                                         0.0294 -0.1656  0.0446 -0.3931 -0.1495
                                         0.1423 -0.5363  0.1361  0.2018
  55. (0.00466) RY ( 3) C  2            s(  0.03%)p99.99(  5.34%)d99.99( 94.62%)
                                         0.0000  0.0000  0.0182 -0.0543 -0.2048
                                        -0.0053 -0.0048  0.0146  0.0909 -0.7382
                                         0.4148  0.2908  0.2937 -0.2416
  56. (0.00274) RY ( 4) C  2            s( 23.24%)p 2.81( 65.32%)d 0.49( 11.44%)
                                         0.0000 -0.0025  0.4821  0.0031  0.3201
                                         0.0483  0.3440 -0.0003  0.6557 -0.0798
                                        -0.0404 -0.1729 -0.1604 -0.2254
  57. (0.00146) RY ( 5) C  2            s(  2.10%)p39.12( 82.21%)d 7.46( 15.69%)
                                         0.0000  0.0091  0.1447  0.0233  0.7735
                                         0.0011  0.1270 -0.0097 -0.4550 -0.1167
                                        -0.0254  0.3741  0.0512  0.0012
  58. (0.00044) RY ( 6) C  2            s( 27.03%)p 0.98( 26.60%)d 1.72( 46.37%)
                                         0.0000  0.0004  0.5199 -0.0057 -0.4623
                                         0.0116  0.1615  0.0119 -0.1608  0.1948
                                        -0.1856  0.5819 -0.2081 -0.0972
  59. (0.00009) RY ( 7) C  2            s(  0.95%)p11.58( 11.02%)d92.52( 88.03%)
  60. (0.00002) RY ( 8) C  2            s(  0.65%)p 1.17(  0.76%)d99.99( 98.60%)
  61. (0.00001) RY ( 9) C  2            s(  0.12%)p 3.13(  0.37%)d99.99( 99.51%)
  62. (0.00340) RY ( 1) N  3            s( 11.06%)p 6.66( 73.70%)d 1.38( 15.24%)
                                         0.0000  0.0125  0.3323  0.0226 -0.7654
                                         0.0057  0.1556 -0.0076  0.3555 -0.0465
                                        -0.3608 -0.1124 -0.0066  0.0858
  63. (0.00190) RY ( 2) N  3            s( 78.78%)p 0.24( 18.73%)d 0.03(  2.50%)
                                         0.0000 -0.0083  0.8875  0.0093  0.3294
                                         0.0062 -0.2733 -0.0054 -0.0625 -0.0314
                                        -0.0190 -0.0617 -0.1244  0.0657
  64. (0.00163) RY ( 3) N  3            s(  0.02%)p99.99( 64.93%)d99.99( 35.04%)
                                         0.0000  0.0121 -0.0089 -0.0037 -0.4291
                                        -0.0075 -0.6135 -0.0194 -0.2972  0.3309
                                         0.3218  0.1200  0.2401  0.2557
  65. (0.00126) RY ( 4) N  3            s(  3.56%)p20.67( 73.59%)d 6.42( 22.85%)
                                         0.0000 -0.0124  0.1883 -0.0034 -0.2481
                                        -0.0142  0.4649 -0.0107 -0.6766  0.1591
                                         0.2023 -0.2046 -0.1338 -0.3202
  66. (0.00089) RY ( 5) N  3            s(  1.23%)p21.66( 26.74%)d58.33( 72.02%)
                                         0.0000 -0.0113  0.1106  0.0026  0.1397
                                         0.0128  0.4522 -0.0003  0.2079  0.2395
                                         0.3834 -0.2703  0.3694  0.5535
  67. (0.00062) RY ( 6) N  3            s(  2.96%)p 5.43( 16.07%)d27.35( 80.97%)
                                         0.0000  0.0001  0.1721  0.0097 -0.0570
                                         0.0138  0.1972  0.0154  0.3436  0.3018
                                         0.3883  0.6852 -0.1496 -0.2756
  68. (0.00040) RY ( 7) N  3            s(  0.50%)p10.40(  5.23%)d99.99( 94.26%)
                                         0.0000  0.0085  0.0704 -0.0051 -0.1538
                                         0.0042 -0.0902 -0.0151  0.1423 -0.6928
                                         0.5579 -0.1434  0.2393 -0.2712
  69. (0.00028) RY ( 8) N  3            s(  0.59%)p33.61( 19.85%)d99.99( 79.56%)
                                         0.0000 -0.0078  0.0764 -0.0013 -0.0301
                                         0.0153  0.2368  0.0100 -0.3757 -0.4476
                                        -0.1684  0.5991  0.1946  0.4125
  70. (0.00002) RY ( 9) N  3            s(  1.37%)p 0.92(  1.26%)d70.98( 97.37%)
  71. (0.00524) RY ( 1) C  4            s(  0.06%)p99.99( 92.39%)d99.99(  7.54%)
                                         0.0000  0.0057  0.0245 -0.0226 -0.5820
                                        -0.0031 -0.1108 -0.0112 -0.7565  0.2138
                                         0.0090  0.1551 -0.0655  0.0360
  72. (0.00264) RY ( 2) C  4            s( 14.94%)p 4.65( 69.51%)d 1.04( 15.55%)
                                         0.0000  0.0129  0.3863  0.0139  0.4604
                                         0.0038 -0.6494 -0.0027 -0.2474 -0.1869
                                        -0.1193  0.3066  0.0509 -0.0989
  73. (0.00165) RY ( 3) C  4            s( 35.40%)p 1.43( 50.49%)d 0.40( 14.10%)
                                         0.0000 -0.0123  0.5949 -0.0019 -0.4414
                                         0.0277 -0.2924 -0.0094  0.4730  0.2902
                                        -0.0492 -0.0982  0.0005  0.2115
  74. (0.00108) RY ( 4) C  4            s(  9.94%)p 3.37( 33.50%)d 5.69( 56.56%)
                                         0.0000  0.0054  0.3152 -0.0041  0.3618
                                        -0.0117  0.3930  0.0149 -0.2219  0.5592
                                        -0.4440 -0.1581  0.1723 -0.0337
  75. (0.00042) RY ( 5) C  4            s( 26.48%)p 0.93( 24.56%)d 1.85( 48.97%)
                                         0.0000 -0.0006  0.5146 -0.0095  0.1149
                                        -0.0176  0.4498  0.0101 -0.1718 -0.3025
                                         0.4824  0.1248 -0.0173  0.3867
  76. (0.00014) RY ( 6) C  4            s(  4.72%)p 0.95(  4.48%)d19.22( 90.80%)
                                         0.0000  0.0006  0.2174  0.0092  0.0209
                                         0.0299 -0.0782 -0.0125 -0.1927 -0.2200
                                         0.0468 -0.7653 -0.4324 -0.2910
  77. (0.00009) RY ( 7) C  4            s(  6.97%)p 1.58( 11.00%)d11.78( 82.03%)
  78. (0.00004) RY ( 8) C  4            s(  1.43%)p 7.91( 11.31%)d61.09( 87.27%)
  79. (0.00001) RY ( 9) C  4            s(  0.10%)p30.42(  2.97%)d99.99( 96.93%)
  80. (0.00366) RY ( 1) C  5            s(  2.66%)p34.28( 91.02%)d 2.38(  6.32%)
                                         0.0000  0.0097  0.1627 -0.0218 -0.9106
                                        -0.0085 -0.2419 -0.0068 -0.1480  0.1808
                                        -0.1585  0.0127 -0.0166 -0.0705
  81. (0.00190) RY ( 2) C  5            s(  0.37%)p99.99( 83.29%)d44.36( 16.34%)
                                         0.0000  0.0231  0.0561  0.0014  0.0814
                                        -0.0045 -0.6683  0.0089  0.6161  0.1256
                                         0.1328 -0.3495 -0.0680  0.0566
  82. (0.00085) RY ( 3) C  5            s(  0.34%)p99.99( 96.22%)d10.04(  3.44%)
                                         0.0000 -0.0020  0.0585 -0.0102  0.3075
                                         0.0182 -0.6274  0.0159 -0.6880  0.1060
                                         0.0081  0.1294 -0.0628  0.0493
  83. (0.00049) RY ( 4) C  5            s( 28.47%)p 0.12(  3.37%)d 2.39( 68.16%)
                                         0.0000  0.0008  0.5336  0.0049  0.0183
                                         0.0003  0.1081 -0.0077  0.1470  0.2375
                                         0.2780  0.4728 -0.3326  0.4623
  84. (0.00027) RY ( 5) C  5            s( 57.96%)p 0.01(  0.76%)d 0.71( 41.29%)
                                         0.0000 -0.0011  0.7613  0.0028  0.0798
                                         0.0045 -0.0239  0.0012 -0.0247 -0.5332
                                        -0.1875 -0.1820  0.1827 -0.1641
  85. (0.00011) RY ( 6) C  5            s(  8.81%)p 1.28( 11.31%)d 9.07( 79.88%)
                                         0.0000 -0.0119  0.2965 -0.0067  0.0977
                                        -0.0024  0.2602  0.0064 -0.1892  0.6030
                                         0.3097 -0.4858  0.0370 -0.3192
  86. (0.00006) RY ( 7) C  5            s(  0.31%)p 2.81(  0.88%)d99.99( 98.81%)
  87. (0.00003) RY ( 8) C  5            s(  1.14%)p 8.99( 10.21%)d78.08( 88.66%)
  88. (0.00001) RY ( 9) C  5            s(  0.04%)p83.81(  3.00%)d99.99( 96.96%)
  89. (0.00351) RY ( 1) C  6            s(  9.50%)p 8.30( 78.82%)d 1.23( 11.69%)
                                         0.0000  0.0177  0.3076  0.0137  0.4712
                                         0.0033  0.2089  0.0338  0.7219  0.0273
                                        -0.0240  0.1870 -0.1493  0.2414
  90. (0.00185) RY ( 2) C  6            s(  0.01%)p 1.00( 67.42%)d 0.48( 32.57%)
                                         0.0000  0.0063 -0.0038  0.0081 -0.7118
                                         0.0190  0.0925 -0.0023  0.3982 -0.2762
                                        -0.1193  0.3462  0.3306  0.0781
  91. (0.00123) RY ( 3) C  6            s(  9.47%)p 4.47( 42.28%)d 5.10( 48.26%)
                                         0.0000 -0.0128  0.3074  0.0235 -0.2844
                                         0.0153 -0.5794 -0.0093  0.0731 -0.1410
                                         0.0339 -0.2996 -0.4299  0.4323
  92. (0.00099) RY ( 4) C  6            s(  0.06%)p99.99( 55.14%)d99.99( 44.81%)
                                         0.0000  0.0122  0.0206 -0.0154 -0.0942
                                        -0.0232  0.6882  0.0144 -0.2607 -0.4614
                                         0.0859 -0.1357 -0.3589  0.2837
  93. (0.00030) RY ( 5) C  6            s( 39.04%)p 0.21(  8.31%)d 1.35( 52.66%)
                                         0.0000  0.0021  0.6248  0.0073 -0.2510
                                        -0.0071  0.1397 -0.0030 -0.0213  0.1604
                                         0.1884  0.0871 -0.2915 -0.6106
  94. (0.00019) RY ( 6) C  6            s(  7.18%)p 1.70( 12.22%)d11.23( 80.61%)
                                         0.0000 -0.0032  0.2679 -0.0147  0.2846
                                        -0.0034 -0.2017  0.0017 -0.0155 -0.6876
                                         0.3101 -0.1409  0.4230 -0.1957
  95. (0.00011) RY ( 7) C  6            s( 20.75%)p 0.32(  6.73%)d 3.49( 72.52%)
                                         0.0000  0.0000  0.4556  0.0169 -0.0611
                                         0.0186  0.2362 -0.0145 -0.0831  0.2662
                                        -0.3520 -0.5054  0.4815  0.2076
  96. (0.00003) RY ( 8) C  6            s( 12.56%)p 2.08( 26.07%)d 4.88( 61.36%)
[...]
                   0.00466   0.00274   0.00146   0.00044   0.00009   0.00002
                  --------  --------  --------  --------  --------  --------
  0 O                -2.8      -3.8      -2.4      -2.4      -2.4      -0.8
  1 C               104.3     143.6     112.9     143.3     113.9     104.7
  2 N                -1.0      -2.2      -6.3     -29.2      -6.2      -1.4
  3 C                -0.1      -0.7      -1.1      -2.2      -0.1       0.2
  4 C                -0.0      -0.1       0.1       0.2      -0.0      -0.0
  5 C                -0.1      -0.1      -0.4      -0.6       0.1      -0.0
  6 N                -0.1      -1.3      -0.2      -1.0       1.1      -0.0
  7 H                -0.1     -35.1      -1.4      -7.0      -6.1      -2.7
  8 H                -0.0       0.1      -0.5      -0.2      -0.0      -0.1
 12 H                 0.0      -0.0      -0.4      -0.0      -0.0      -0.0
 14 H                -0.0      -0.4      -0.3      -0.7      -0.2      -0.0

                     60        61        62        63        64        65   
                   0.00000   0.00000   0.00000   0.00000   0.00000   0.00000
                   0.00001   0.00340   0.00190   0.00163   0.00126   0.00089
                  --------  --------  --------  --------  --------  --------
  0 O                -0.1      -0.2      -0.5      -0.3       0.1      -0.2
  1 C               103.7      -6.9     -19.4      -6.1     -32.8      -6.1
  2 N                -0.4     126.4     167.4     132.3     145.9     121.3
  3 C                 0.0      -6.9     -39.9      -9.4      -9.0      -2.4
  4 C                -0.0       1.6       2.1      -0.3       1.1      -0.1
  5 C                -0.0      -5.6      -2.2      -0.7      -0.2      -0.8
  6 N                -0.0      -8.4      -8.5     -16.3      -4.4     -12.4
  7 H                -3.2      -0.1       0.2       0.2      -0.8       0.1
  8 H                -0.0      -0.1       0.4       0.5      -0.1       0.2
  9 H                -0.0       0.0       0.7      -0.1       0.2      -0.1
 12 H                -0.0       0.2      -0.0      -0.0       0.0      -0.0
 13 H                -0.0      -0.1      -0.0       0.0      -0.0      -0.0
 14 H                -0.0       0.2      -0.1       0.1       0.1       0.4

                     66        67        68        69        70        71   
                   0.00000   0.00000   0.00000   0.00000   0.00000   0.00000
                   0.00062   0.00040   0.00028   0.00002   0.00524   0.00264
                  --------  --------  --------  --------  --------  --------
  0 O                -0.2       0.0       0.1      -0.0      -0.2      -0.1
  1 C                -3.0      -1.6      -8.3      -1.4      -2.8      -3.5
  2 N               110.2     105.8     113.9     104.4      -6.6     -25.8
  3 C                -2.3      -2.4      -2.4      -1.1     157.8     170.8
  4 C                 0.4       0.3      -0.0      -0.1     -23.9     -39.7
  5 C                -1.7      -0.8       0.0      -0.1       0.9       4.4
  6 N                -3.3      -1.0      -3.0      -1.6      -1.2      -1.1
  7 H                 0.2      -0.0      -0.1      -0.0       0.1      -0.1
  8 H                 0.0      -0.1      -0.2      -0.0     -17.0      -2.5
  9 H                -0.0      -0.0       0.1      -0.0      -7.9      -2.4
 10 H                -0.0      -0.0      -0.0      -0.0      -0.4       0.3
 11 H                -0.0      -0.0      -0.0       0.0       1.3      -0.2
 13 H                -0.1      -0.0      -0.0      -0.0      -0.1      -0.1
 14 H                -0.1      -0.0      -0.1      -0.1      -0.0       0.0

                     72        73        74        75        76        77   
                   0.00000   0.00000   0.00000   0.00000   0.00000   0.00000
                   0.00165   0.00108   0.00042   0.00014   0.00009   0.00004
                  --------  --------  --------  --------  --------  --------
  0 O                -0.3       0.0      -0.0      -0.0       0.0       0.0
  1 C                -5.3       0.0       0.3      -0.4       0.3       0.3
  2 N               -36.9      -1.4      -0.1      -2.7      -2.0      -0.8
  3 C               173.4     136.2     153.5     117.7     119.1     114.0
  4 C                -4.9     -22.9     -32.8     -11.5      -4.2      -1.8
  5 C                 0.6       0.4       0.2       1.0      -0.1      -0.0
  6 N                -0.6      -0.6      -0.1       0.3      -0.0      -0.0
  7 H                -0.8      -0.3      -0.0      -0.1      -0.0      -0.0
  8 H                -4.5      -7.6     -14.1      -3.5      -5.1      -5.2
  9 H               -20.5      -4.5      -7.8      -0.8      -7.9      -6.5
 10 H                -0.0       0.2       1.0      -0.0      -0.0      -0.0
 11 H                -0.2       0.4      -0.1       0.1      -0.0       0.2

                     78        79        80        81        82        83   
                   0.00000   0.00000   0.00000   0.00000   0.00000   0.00000
                   0.00001   0.00366   0.00190   0.00085   0.00049   0.00027
                  --------  --------  --------  --------  --------  --------
  1 C                 0.2      -0.1       0.1      -0.0       0.1       0.1
  2 N                -2.1       0.4       2.1      -0.8       1.3       1.7
  3 C               109.8     -21.3     -16.7     -24.0     -28.9     -38.7
  4 C                -1.2     165.8     147.2     157.8     156.2     206.2
  5 C                 0.0     -16.1     -18.4     -31.8     -14.9     -43.9
  6 N                 0.0      -1.6       0.3      -0.2       0.1       0.5
  8 H                -2.0       0.2      -0.1       0.4      -0.2       0.5
  9 H                -4.8       1.0      -0.1      -0.0       0.7       0.1
 10 H                 0.0     -12.9      -4.4      -1.5      -8.4     -15.4
 11 H                -0.0     -15.7      -9.8      -0.4      -6.3     -11.4
 12 H                -0.0       0.2      -0.1       0.2       0.4      -0.1
 13 H                -0.0       0.2      -0.1       0.4      -0.1       0.6
 14 H                -0.0      -0.1      -0.0      -0.1      -0.0      -0.1

                     84        85        86        87        88        89   
                   0.00000   0.00000   0.00000   0.00000   0.00000   0.00000
                   0.00011   0.00006   0.00003   0.00001   0.00351   0.00185
                  --------  --------  --------  --------  --------  --------
  0 O                -0.0      -0.0      -0.0      -0.0      -0.1      -0.0
  1 C                -0.0      -0.0      -0.0      -0.0      -1.0      -0.4
  2 N                -0.2      -0.0       0.3      -0.0      -4.9      -1.8
  3 C                -4.6      -1.0      -4.9      -1.3       2.0       0.6
  4 C               123.2     105.5     120.4     107.0     -22.0      -6.7
  5 C                -3.0      -2.1      -2.8      -1.5     157.6     131.5
  6 N                -0.1      -0.1       0.0      -0.0      -6.1     -10.8
  8 H                -0.0       0.0       0.2      -0.0      -0.0       0.0
 10 H               -10.1      -1.7      -4.4      -1.9       0.7      -0.2
 11 H                -5.2      -0.4      -9.0      -2.2      -0.1      -0.1
 12 H                -0.0      -0.0       0.2      -0.0     -18.4      -8.5
 13 H                 0.1      -0.0       0.1      -0.0      -7.2      -3.8
 14 H                -0.0      -0.0      -0.0      -0.0      -0.2      -0.0

                     90        91        92        93        94        95   
                   0.00000   0.00000   0.00000   0.00000   0.00000   0.00000
                   0.00123   0.00099   0.00030   0.00019   0.00011   0.00003
                  --------  --------  --------  --------  --------  --------
  1 C                -0.1       0.1      -0.1      -0.0      -0.1      -0.0
  2 N                -2.1       0.3      -2.6      -0.2      -2.1      -0.5
  3 C                -0.3       0.2       2.7      -0.0       2.9      -0.1
  4 C                -2.1     -19.5     -39.0      -2.3     -36.8      -6.7
  5 C               133.7     129.0     173.9     122.5     144.2     129.7
  6 N               -16.3      -3.8     -19.9      -2.9      -1.6      -1.4
  9 H                 0.0       0.0      -0.2      -0.0      -0.0      -0.0
 10 H                -0.1       0.5      -0.0       0.1       0.1       0.1
 11 H                -0.1      -0.4       0.8       0.1       0.3       0.1
 12 H                -1.9      -5.6      -2.3     -13.8      -1.8      -4.4
 13 H                -8.0      -0.1     -12.7      -3.3      -5.1     -16.6
 14 H                -2.7      -0.7      -0.6      -0.2       0.0      -0.0

                     96        97        98        99       100       101   
                   0.00000   0.00000   0.00000   0.00000   0.00000   0.00000
                   0.00001   0.00509   0.00198   0.00136   0.00044   0.00020
                  --------  --------  --------  --------  --------  --------
  0 O                -0.0       0.0      -0.0      -0.3      -0.0      -0.0
  1 C                 0.1      -0.6      -0.3      -0.6       0.0      -0.1
  2 N                -0.0      -2.3      -3.7     -44.0       0.4      -1.1
  3 C                -0.1      -1.1      -0.6      -1.3      -0.3      -0.1
  4 C                -4.0       0.5       0.3      -1.2      -0.2       0.2
  5 C               112.9      -8.1      -5.5      -3.0     -13.8      -1.0
  6 N                -0.7     113.1     121.0     151.6     118.8     104.7
 11 H                 0.1      -0.0      -0.0       0.0      -0.0       0.0
 12 H                -1.7       0.0      -0.2      -0.2       0.1      -0.0
 13 H                -6.4       0.1       0.1      -0.1       0.2       0.0
 14 H                -0.0      -1.5     -11.0      -1.0      -5.2      -2.5

                    102       103       104       105       106       107   
                   0.00000   0.00000   0.00000   0.00000   0.00000   0.00000
                   0.00013   0.00006   0.00003   0.00001   0.00525   0.00015
                  --------  --------  --------  --------  --------  --------
  0 O                -0.1      -0.0      -0.0      -0.0      -1.1      -0.2
  1 C                 0.1      -0.0       0.0      -0.0     -40.3      -2.7
  2 N                -3.9      -5.5       0.2      -0.5      -0.3      -0.1
  3 C                -0.5       1.0      -0.1      -0.0      -1.1      -0.0
  4 C                 1.5      -1.4       0.1      -0.1      -0.1      -0.0
  5 C               -26.2      -2.6      -1.0      -1.0      -0.0      -0.0
  6 N               132.4     111.2     103.6     105.3       0.0      -0.0
  7 H                -0.0      -0.0      -0.0      -0.0     145.3     103.0
  8 H                -0.0      -0.0      -0.0      -0.0      -2.4      -0.0
 12 H                 0.5       0.0       0.0      -0.0      -0.0      -0.0
 13 H                 0.3      -0.0      -0.0       0.0      -0.0      -0.0
 14 H                -3.9      -2.6      -2.8      -3.7      -0.1      -0.0

                    108       109       110       111       112       113   
                   0.00000   0.00000   0.00000   0.00000   0.00000   0.00000
                   0.00007   0.00004   0.00247   0.00012   0.00009   0.00002
                  --------  --------  --------  --------  --------  --------
  0 O                -1.1      -0.3      -0.1      -0.0      -0.0      -0.0
  1 C                -5.6      -4.9      -1.2      -0.0      -0.0      -0.0
  2 N                -0.0      -0.7       0.7      -0.1      -0.3      -0.4
  3 C                -0.0      -0.1     -40.5      -3.8      -3.2      -6.9
  4 C                -0.0       0.0       0.6      -0.0      -0.1      -0.3
  5 C                -0.0      -0.0       0.1      -0.0      -0.0       0.0
  7 H               106.7     106.0      -2.3      -0.0      -0.1      -0.0
  8 H                -0.0       0.0     144.9     104.7     104.3     107.7
  9 H                -0.0      -0.0      -0.8      -0.7      -0.4       0.0
 10 H                -0.0      -0.0      -1.5      -0.0      -0.1      -0.0

                    114       115       116       117       118       119   
                   0.00000   0.00000   0.00000   0.00000   0.00000   0.00000
                   0.00311   0.00012   0.00010   0.00002   0.00225   0.00012
                  --------  --------  --------  --------  --------  --------
  1 C                -0.1      -0.0      -0.0      -0.0       0.0      -0.0
  2 N                 0.6       0.1      -0.1      -0.4       0.0      -0.0
  3 C               -41.0      -4.4      -4.1      -6.2       0.7       0.0
  4 C                 1.5      -0.3       0.1      -0.5     -38.5      -3.5
  5 C                -0.1      -0.1      -0.0       0.0       1.1      -0.3
  6 N                 0.0      -0.0      -0.0      -0.1      -0.2      -0.0
  8 H                -0.6      -0.5      -0.7       0.0      -1.5      -0.0
  9 H               141.7     105.3     105.0     107.2       0.0      -0.0
 10 H                 0.0       0.0      -0.0      -0.0     140.3     104.4
 11 H                -1.9      -0.0      -0.0      -0.0      -0.7      -0.5
 12 H                -0.0      -0.0      -0.0      -0.0      -1.2      -0.0

                    120       121       122       123       124       125   
                   0.00000   0.00000   0.00000   0.00000   0.00000   0.00000
                   0.00011   0.00002   0.00323   0.00011   0.00010   0.00002
                  --------  --------  --------  --------  --------  --------
  3 C                -0.2      -0.3       1.2      -0.3       0.0      -0.3
  4 C                -3.7      -7.3     -37.9      -3.0      -4.7      -7.1
  5 C                -0.2      -0.3       0.5      -0.1      -0.0      -0.2
  8 H                -0.1      -0.0       0.0      -0.0      -0.0      -0.0
  9 H                -0.0      -0.0      -1.9      -0.1      -0.0      -0.0
 10 H               105.0     108.1      -0.7      -0.4      -0.7       0.0
 11 H                -0.6       0.0     140.0     104.0     105.6     107.7
 13 H                -0.0      -0.0      -1.2      -0.1      -0.0      -0.0

                    126       127       128       129       130       131   
                   0.00000   0.00000   0.00000   0.00000   0.00000   0.00000
                   0.00432   0.00012   0.00010   0.00002   0.00175   0.00011
                  --------  --------  --------  --------  --------  --------
  1 C                -0.8      -0.0      -0.0      -0.0      -0.0      -0.0
  2 N                 0.2      -0.0      -0.1      -0.2      -0.3      -0.0
  3 C                -0.1      -0.1      -0.1       0.0      -0.1      -0.0
  4 C                 0.8      -0.3       0.0      -0.4       1.0       0.0
  5 C               -37.0      -2.7      -4.7      -6.4     -41.2      -4.8
  6 N                 0.3      -0.2      -0.1      -0.4       0.7      -0.1
 10 H                -1.2      -0.1      -0.0      -0.0       0.1      -0.0
 11 H                -0.0      -0.0      -0.0      -0.0      -1.2      -0.1
 12 H               138.9     103.7     105.7     107.3      -0.7      -0.7
 13 H                -0.7      -0.4      -0.7       0.1     141.8     105.7
 14 H                -0.4      -0.0      -0.0       0.0      -0.1      -0.0

                    132       133       134       135       136       137   
                   0.00000   0.00000   0.00000   0.00000   0.00000   0.00000
                   0.00010   0.00002   0.00617   0.00066   0.00020   0.00004
                  --------  --------  --------  --------  --------  --------
  0 O                -0.0      -0.0      -1.2      -0.0      -0.0      -0.1
  1 C                -0.0      -0.0      -4.1      -0.0       0.0       0.0
  2 N                -0.0      -0.0       0.7      -0.2      -0.4      -0.5
  4 C                -0.2      -0.4      -0.2      -0.0      -0.1       0.0
  5 C                -3.3      -6.1      -4.6      -0.1      -0.2      -0.1
  6 N                -0.2      -0.6     -10.0      -4.2      -3.3      -4.9
  7 H                -0.0      -0.0      -0.2      -0.0      -0.0      -0.0
 12 H                -0.4       0.0      -0.3      -0.0       0.0      -0.0
 13 H               104.3     107.1      -0.1      -0.0      -0.1      -0.0
 14 H                -0.1      -0.0     119.9     104.7     104.2     105.6


Storing NBOs: 6777.nbo
                                    *** NBOs were stored ***

                                *** returned from GENNBO program ***

-------
TIMINGS
-------

Total SCF time: 0 days 0 hours 0 min 5 sec 

Total time                  ....       5.146 sec
Sum of individual times     ....       5.629 sec  (109.4%)

Fock matrix formation       ....       3.227 sec  ( 62.7%)
  Coulomb formation         ....       1.682 sec  ( 52.1% of F)
  Split-RI-J                ....       1.676 sec  ( 51.9% of F)
  XC integration            ....       1.541 sec  ( 47.7% of F)
    Basis function eval.    ....       0.506 sec  ( 32.9% of XC)
    Density eval.           ....       0.284 sec  ( 18.5% of XC)
    XC-Functional eval.     ....       0.088 sec  (  5.7% of XC)
    XC-Potential eval.      ....       0.628 sec  ( 40.8% of XC)
Diagonalization             ....       0.020 sec  (  0.4%)
Density matrix formation    ....       0.002 sec  (  0.0%)
Population analysis         ....       1.335 sec  ( 25.9%)
Initial guess               ....       0.368 sec  (  7.1%)
Orbital Transformation      ....       0.000 sec  (  0.0%)
Orbital Orthonormalization  ....       0.000 sec  (  0.0%)
DIIS solution               ....       0.005 sec  (  0.1%)
SOSCF solution              ....       0.010 sec  (  0.2%)
Grid generation             ....       0.662 sec  ( 12.9%)
           ************************************************************
           *              Shut down parallel processing               *
           ************************************************************

-------------------------   --------------------
FINAL SINGLE POINT ENERGY      -341.273392941896
-------------------------   --------------------


                            ***************************************
                            *     ORCA property calculations      *
                            ***************************************

                                    ---------------------
                                    Active property flags
                                    ---------------------
   (+) Dipole Moment


------------------------------------------------------------------------------
                       ORCA ELECTRIC PROPERTIES CALCULATION
------------------------------------------------------------------------------

Dipole Moment Calculation                       ... on
Quadrupole Moment Calculation                   ... off
Polarizability Calculation                      ... off
GBWName                                         ... 6777.gbw
Electron density file                           ... 6777.scfp.tmp

-------------
DIPOLE MOMENT
-------------
                                X             Y             Z
Electronic contribution:     -1.25969      -3.97023       4.01906
Nuclear contribution   :      1.55368       5.21113      -4.85856
                        -----------------------------------------
Total Dipole Moment    :      0.29398       1.24090      -0.83950
                        -----------------------------------------
Magnitude (a.u.)       :      1.52677
Magnitude (Debye)      :      3.88073


Timings for individual modules:

Sum of individual times         ...        6.310 sec (=   0.105 min)
GTO integral calculation        ...        0.466 sec (=   0.008 min)   7.4 %
SCF iterations                  ...        5.845 sec (=   0.097 min)  92.6 %
                             ****ORCA TERMINATED NORMALLY****
TOTAL RUN TIME: 0 days 0 hours 0 minutes 6 seconds 711 msec
