
                                 *****************
                                 * O   R   C   A *
                                 *****************

           --- An Ab Initio, DFT and Semiempirical electronic structure package ---

                  #######################################################
                  #                        -***-                        #
                  #  Department of molecular theory and spectroscopy    #
                  #              Directorship: Frank Neese              #
                  # Max Planck Institute for Chemical Energy Conversion #
                  #                  D-45470 Muelheim/Ruhr              #
                  #                       Germany                       #
                  #                                                     #
                  #                  All rights reserved                #
                  #                        -***-                        #
                  #######################################################


                         Program Version 3.0.3 - RELEASE   -


 With contributions from (in alphabetic order):
   Ute Becker             : Parallelization
   Dmytro Bykov           : SCF Hessian
   Dmitry Ganyushin       : Spin-Orbit,Spin-Spin,Magnetic field MRCI
   Andreas Hansen         : Spin unrestricted coupled pair/coupled cluster methods
   Dimitrios Liakos       : Extrapolation schemes; parallel MDCI
   Robert Izsak           : Overlap fitted RIJCOSX, COSX-SCS-MP3
   Christian Kollmar      : KDIIS, OOCD, Brueckner-CCSD(T), CCSD density
   Simone Kossmann        : Meta GGA functionals, TD-DFT gradient, OOMP2, MP2 Hessian
   Taras Petrenko         : DFT Hessian,TD-DFT gradient, ASA and ECA modules, normal mode analysis, Resonance Raman, ABS, FL, XAS/XES, NRVS
   Christoph Reimann      : Effective Core Potentials
   Michael Roemelt        : Restricted open shell CIS
   Christoph Riplinger    : Improved optimizer, TS searches, QM/MM, DLPNO-CCSD
   Barbara Sandhoefer     : DKH picture change effects
   Igor Schapiro          : Molecular dynamics
   Kantharuban Sivalingam : CASSCF convergence, NEVPT2
   Boris Wezisla          : Elementary symmetry handling
   Frank Wennmohs         : Technical directorship


 We gratefully acknowledge several colleagues who have allowed us to
 interface, adapt or use parts of their codes:
   Stefan Grimme, W. Hujo, H. Kruse, T. Risthaus : VdW corrections, initial TS optimization,
                                                   DFT functionals, gCP
   Ed Valeev                                     : LibInt (2-el integral package), F12 methods
   Garnet Chan, S. Sharma, R. Olivares           : DMRG
   Ulf Ekstrom                                   : XCFun DFT Library
   Mihaly Kallay                                 : mrcc  (arbitrary order and MRCC methods)
   Andreas Klamt, Michael Diedenhofen            : otool_cosmo (COSMO solvation model)
   Frank Weinhold                                : gennbo (NPA and NBO analysis)
   Christopher J. Cramer and Donald G. Truhlar   : smd solvation model


 Your calculation uses the libint2 library for the computation of 2-el integrals
 For citations please refer to: http://libint.valeyev.net

 This ORCA versions uses:
   CBLAS   interface :  Fast vector & matrix operations
   LAPACKE interface :  Fast linear algebra routines
   SCALAPACK package :  Parallel linear algebra routines


Your calculation utilizes the basis: Ahlrichs-VDZ
Cite in your paper:
H - Kr: A. Schaefer, H. Horn and R. Ahlrichs, J. Chem. Phys. 97, 2571 (1992).

Your calculation utilizes the basis: Ahlrichs SVPalls1+f
Cite in your paper:
Rb - Xe: A. Schaefer, C. Huber and R. Ahlrichs, J. Chem. Phys. 100, 5829 (1994).

================================================================================
                                        WARNINGS
                       Please study these warnings very carefully!
================================================================================
Now building the actual basis set


INFO   : the flag for use of LIBINT has been found!

================================================================================
                                       INPUT FILE
================================================================================
NAME = 7071.inp
|  1> ! RI PBE def2-SVP def2-SVP/J NBO PAL2
|  2> % maxcore 2000
|  3> % output
|  4>     # printlevel mini
|  5>     print[ P_Basis ] 0
|  6>     print[ P_SCFInfo ] 1
|  7>     print[ P_SCFIterInfo ] 1
|  8>     print[ P_OrbEn ] 0
|  9>     print[ P_Cartesian ] 0
| 10> end
| 11> *xyz 0 1
| 12>  C        2.4728720000    -1.2133010000    -1.1658450000 
| 13>  N        3.3957880000    -0.9767340000    -0.0827760000 
| 14>  C        3.6970730000     0.2607660000     0.3512720000 
| 15>  S        3.0217930000     1.6429050000    -0.2725100000 
| 16>  N        4.6114550000     0.3407330000     1.3646050000 
| 17>  C        5.1173440000    -0.6809150000     2.1439990000 
| 18>  C        6.1208080000    -0.5502780000     3.0086960000 
| 19>  H        2.3437730000    -2.2903690000    -1.2760780000 
| 20>  H        2.8356590000    -0.7885810000    -2.1059000000 
| 21>  H        1.5094390000    -0.7548730000    -0.9430170000 
| 22>  H        4.0201790000    -1.7279650000     0.1561510000 
| 23>  H        4.8714680000     1.2892610000     1.5853670000 
| 24>  H        4.6025970000    -1.6308600000     2.0495780000 
| 25>  H        6.6499820000     0.3865140000     3.1400710000 
| 26>  H        6.4219600000    -1.3899240000     3.6180960000 
| 27> *
| 28> 
| 29>                          ****END OF INPUT****
================================================================================

                       ****************************
                       * Single Point Calculation *
                       ****************************

--------------------------------
INTERNAL COORDINATES (ANGSTROEM)
--------------------------------
 C      0   0   0   0.000000     0.000     0.000
 N      1   0   0   1.442490     0.000     0.000
 C      2   1   0   1.345577   122.431     0.000
 S      3   2   1   1.659944   123.605     1.647
 N      3   2   1   1.367236   116.271   181.497
 C      5   3   2   1.380994   128.317   349.039
 C      6   5   3   1.331055   124.764   171.748
 H      1   2   3   1.090364   108.280   184.116
 H      1   2   3   1.093483   111.686    63.304
 H      1   2   3   1.089959   110.064   303.607
 H      2   1   3   1.005633   116.945   198.298
 H      5   3   2   1.007992   112.947   174.024
 H      6   5   3   1.084562   115.149   348.782
 H      7   6   5   1.083911   122.115   357.721
 H      7   6   5   1.080308   120.022   176.797

---------------------------
INTERNAL COORDINATES (A.U.)
---------------------------
 C      0   0   0   0.000000     0.000     0.000
 N      1   0   0   2.725910     0.000     0.000
 C      2   1   0   2.542771   122.431     0.000
 S      3   2   1   3.136840   123.605     1.647
 N      3   2   1   2.583701   116.271   181.497
 C      5   3   2   2.609700   128.317   349.039
 C      6   5   3   2.515329   124.764   171.748
 H      1   2   3   2.060489   108.280   184.116
 H      1   2   3   2.066383   111.686    63.304
 H      1   2   3   2.059725   110.064   303.607
 H      2   1   3   1.900371   116.945   198.298
 H      5   3   2   1.904829   112.947   174.024
 H      6   5   3   2.049526   115.149   348.782
 H      7   6   5   2.048296   122.115   357.721
 H      7   6   5   2.041487   120.022   176.797



           ************************************************************
           *        Program running with 2 parallel MPI-processes     *
           *              working on a common directory               *
           ************************************************************
------------------------------------------------------------------------------
                           ORCA GTO INTEGRAL CALCULATION
                           -- RI-GTO INTEGRALS CHOSEN --
------------------------------------------------------------------------------

                         BASIS SET STATISTICS AND STARTUP INFO

Gaussian basis set:
 # of primitive gaussian shells          ...  130
 # of primitive gaussian functions       ...  236
 # of contracted shells                  ...   68
 # of contracted basis functions         ...  142
 Highest angular momentum                ...    2
 Maximum contraction depth               ...    5
Auxiliary gaussian basis set:
 # of primitive gaussian shells          ...  235
 # of primitive gaussian functions       ...  625
 # of contracted shells                  ...  147
 # of contracted aux-basis functions     ...  433
 Highest angular momentum                ...    4
 Maximum contraction depth               ...    7
Ratio of auxiliary to basis functions    ...  3.05
Integral package used                  ... LIBINT
 One Electron integrals                  ... done
 Ordering auxiliary basis shells         ... done
 Integral threshhold             Thresh  ...  1.000e-10
 Primitive cut-off               TCut    ...  1.000e-11
 Pre-screening matrix                    ... done
 Shell pair data                         ... 
 Ordering of the shell pairs             ... done (   0.000 sec) 2161 of 2346 pairs
 Determination of significant pairs      ... done (   0.000 sec)
 Creation of shell pair data             ... done (   0.000 sec)
 Storage of shell pair data              ... done (   0.000 sec)
 Shell pair data done in (   0.001 sec)
 Computing two index integrals           ... done
 Cholesky decomposition of the V-matrix  ... done


Timings:
 Total evaluation time                   ...   0.158 sec (  0.003 min)
 One electron matrix time                ...   0.019 sec (  0.000 min) = 11.8%
 Schwartz matrix evaluation time         ...   0.073 sec (  0.001 min) = 46.5%
 Two index repulsion integral time       ...   0.005 sec (  0.000 min) =  3.4%
 Cholesky decomposition of V             ...   0.003 sec (  0.000 min) =  2.0%
 Three index repulsion integral time     ...   0.000 sec (  0.000 min) =  0.0%

           ************************************************************
           *              Shut down parallel processing               *
           ************************************************************


           ************************************************************
           *        Program running with 2 parallel MPI-processes     *
           *              working on a common directory               *
           ************************************************************
-------------------------------------------------------------------------------
                                 ORCA SCF
-------------------------------------------------------------------------------

------------
SCF SETTINGS
------------
Hamiltonian:
 Density Functional     Method          .... DFT(GTOs)
 Exchange Functional    Exchange        .... PBE
   PBE kappa parameter  XKappa          ....  0.804000
 Correlation Functional Correlation     .... PBE
 LDA part of GGA corr.  LDAOpt          .... PW91-LDA
 Gradients option       PostSCFGGA      .... off
   NL short-range parameter             ....  6.400000
 RI-approximation to the Coulomb term is turned on
   Number of auxiliary basis functions  .... 433


General Settings:
 Integral files         IntName         .... 7071
 Hartree-Fock type      HFTyp           .... RHF
 Total Charge           Charge          ....    0
 Multiplicity           Mult            ....    1
 Number of Electrons    NEL             ....   62
 Basis Dimension        Dim             ....  142
 Nuclear Repulsion      ENuc            ....    353.9145640847 Eh

Convergence Acceleration:
 DIIS                   CNVDIIS         .... on
   Start iteration      DIISMaxIt       ....    12
   Startup error        DIISStart       ....  0.200000
   # of expansion vecs  DIISMaxEq       ....     5
   Bias factor          DIISBfac        ....   1.050
   Max. coefficient     DIISMaxC        ....  10.000
 Newton-Raphson         CNVNR           .... off
 SOSCF                  CNVSOSCF        .... on
   Start iteration      SOSCFMaxIt      ....   150
   Startup grad/error   SOSCFStart      ....  0.003300
 Level Shifting         CNVShift        .... on
   Level shift para.    LevelShift      ....    0.2500
   Turn off err/grad.   ShiftErr        ....    0.0010
 Zerner damping         CNVZerner       .... off
 Static damping         CNVDamp         .... on
   Fraction old density DampFac         ....    0.7000
   Max. Damping (<1)    DampMax         ....    0.9800
   Min. Damping (>=0)   DampMin         ....    0.0000
   Turn off err/grad.   DampErr         ....    0.1000
 Fernandez-Rico         CNVRico         .... off

SCF Procedure:
 Maximum # iterations   MaxIter         ....   125
 SCF integral mode      SCFMode         .... Direct
   Integral package                     .... LIBINT
 Reset frequeny         DirectResetFreq ....    20
 Integral Threshold     Thresh          ....  1.000e-10 Eh
 Primitive CutOff       TCut            ....  1.000e-11 Eh

Convergence Tolerance:
 Convergence Check Mode ConvCheckMode   .... Total+1el-Energy
 Energy Change          TolE            ....  1.000e-06 Eh
 1-El. energy change                    ....  1.000e-03 Eh
 Orbital Gradient       TolG            ....  5.000e-05
 Orbital Rotation angle TolX            ....  5.000e-05
 DIIS Error             TolErr          ....  1.000e-06


Diagonalization of the overlap matrix:
Smallest eigenvalue                        ... 2.494e-03
Time for diagonalization                   ...    0.011 sec
Threshold for overlap eigenvalues          ... 1.000e-08
Number of eigenvalues below threshold      ... 0
Time for construction of square roots      ...    0.003 sec
Total time needed                          ...    0.014 sec

-------------------
DFT GRID GENERATION
-------------------

General Integration Accuracy     IntAcc      ...  4.340
Radial Grid Type                 RadialGrid  ... Gauss-Chebyshev
Angular Grid (max. acc.)         AngularGrid ... Lebedev-110
Angular grid pruning method      GridPruning ... 3 (G Style)
Weight generation scheme         WeightScheme... Becke
Basis function cutoff            BFCut       ...    1.0000e-10
Integration weight cutoff        WCut        ...    1.0000e-14
Grids for H and He will be reduced by one unit

# of grid points (after initial pruning)     ...  18186 (   0.0 sec)
# of grid points (after weights+screening)   ...  17077 (   0.1 sec)
nearest neighbour list constructed           ...    0.0 sec
Grid point re-assignment to atoms done       ...    0.0 sec
Grid point division into batches done        ...    0.0 sec
Reduced shell lists constructed in    0.1 sec

Total number of grid points                  ...    17077
Total number of batches                      ...      271
Average number of points per batch           ...       63
Average number of grid points per atom       ...     1138
Average number of shells per batch           ...    49.99 (73.52%)
Average number of basis functions per batch  ...   103.25 (72.71%)
Average number of large shells per batch     ...    39.71 (79.43%)
Average number of large basis fcns per batch ...    81.31 (78.76%)
Maximum spatial batch extension              ...  25.60, 19.34, 20.41 au
Average spatial batch extension              ...   1.64,  1.47,  1.64 au

Time for grid setup =    0.138 sec

------------------------------
INITIAL GUESS: MODEL POTENTIAL
------------------------------
Loading Hartree-Fock densities                     ... done
Calculating cut-offs                               ... done
Setting up the integral package                    ... done
Initializing the effective Hamiltonian             ... done
Starting the Coulomb interaction                   ... done (   0.0 sec)
Reading the grid                                   ... done
Mapping shells                                     ... done
Starting the XC term evaluation                    ... done (   0.1 sec)
  promolecular density results
     # of electrons  =     61.993117050
     EX              =    -60.820565113
     EC              =     -2.135558854
     EX+EC           =    -62.956123968
Transforming the Hamiltonian                       ... done (   0.0 sec)
Diagonalizing the Hamiltonian                      ... done (   0.0 sec)
Back transforming the eigenvectors                 ... done (   0.0 sec)
Now organizing SCF variables                       ... done
                      ------------------
                      INITIAL GUESS DONE (   0.4 sec)
                      ------------------
--------------
SCF ITERATIONS
--------------
ITER       Energy         Delta-E        Max-DP      RMS-DP      [F,P]     Damp
               ***  Starting incremental Fock matrix formation  ***
  0   -663.9523713627   0.000000000000 0.07313705  0.00226561  0.1652250 0.7000
  1   -664.0242398145  -0.071868451799 0.05023139  0.00160912  0.0780081 0.7000
                               ***Turning on DIIS***
  2   -664.0505905568  -0.026350742240 0.08679815  0.00271891  0.0218045 0.0000
  3   -664.0887130805  -0.038122523685 0.03436519  0.00108855  0.0496979 0.0000
  4   -664.1000260635  -0.011312983002 0.02115842  0.00044423  0.0090885 0.0000
  5   -664.1008603279  -0.000834264476 0.00290627  0.00013602  0.0033077 0.0000
                      *** Initiating the SOSCF procedure ***
                           *** Shutting down DIIS ***
                      *** Re-Reading the Fockian *** 
                      *** Removing any level shift *** 
ITER      Energy       Delta-E        Grad      Rot      Max-DP    RMS-DP
  6   -664.10090911  -0.0000487831  0.000350  0.000350  0.001861  0.000084
               *** Restarting incremental Fock matrix formation ***
  7   -664.10091402  -0.0000049133  0.000407  0.002537  0.001955  0.000062
  8   -664.10090192   0.0000121033  0.000993  0.001831  0.001489  0.000043
  9   -664.10091668  -0.0000147586  0.000107  0.000519  0.000561  0.000018
 10   -664.10091572   0.0000009557  0.000275  0.000388  0.000409  0.000013
 11   -664.10091686  -0.0000011376  0.000016  0.000055  0.000112  0.000004
                 **** Energy Check signals convergence ****
              ***Rediagonalizing the Fockian in SOSCF/NRSCF***

               *****************************************************
               *                     SUCCESS                       *
               *           SCF CONVERGED AFTER  12 CYCLES          *
               *****************************************************

Setting up the final grid:

General Integration Accuracy     IntAcc      ...  4.670
Radial Grid Type                 RadialGrid  ... Gauss-Chebyshev
Angular Grid (max. acc.)         AngularGrid ... Lebedev-302
Angular grid pruning method      GridPruning ... 3 (G Style)
Weight generation scheme         WeightScheme... Becke
Basis function cutoff            BFCut       ...    1.0000e-10
Integration weight cutoff        WCut        ...    1.0000e-14
Grids for H and He will be reduced by one unit

# of grid points (after initial pruning)     ...  71270 (   0.0 sec)
# of grid points (after weights+screening)   ...  66204 (   0.1 sec)
nearest neighbour list constructed           ...    0.0 sec
Grid point re-assignment to atoms done       ...    0.0 sec
Grid point division into batches done        ...    0.2 sec
Reduced shell lists constructed in    0.4 sec

Total number of grid points                  ...    66204
Total number of batches                      ...     1040
Average number of points per batch           ...       63
Average number of grid points per atom       ...     4414
Average number of shells per batch           ...    46.43 (68.28%)
Average number of basis functions per batch  ...    95.35 (67.14%)
Average number of large shells per batch     ...    36.09 (77.72%)
Average number of large basis fcns per batch ...    73.00 (76.56%)
Maximum spatial batch extension              ...  16.89, 16.27, 17.45 au
Average spatial batch extension              ...   1.02,  0.97,  1.03 au

Final grid set up in    0.5 sec
Final integration                            ... done (   0.4 sec)
Change in XC energy                          ...    -0.000018179
Integrated number of electrons               ...    61.999981293
Previous integrated no of electrons          ...    61.998378431

----------------
TOTAL SCF ENERGY
----------------

Total Energy       :         -664.10093503 Eh          -18071.10516 eV

Components:
Nuclear Repulsion  :          353.91456408 Eh            9630.50489 eV
Electronic Energy  :        -1018.01549911 Eh          -27701.61005 eV

One Electron Energy:        -1611.46457841 Eh          -43850.18048 eV
Two Electron Energy:          593.44907930 Eh           16148.57043 eV

Virial components:
Potential Energy   :        -1324.78121047 Eh          -36049.12944 eV
Kinetic Energy     :          660.68027544 Eh           17978.02428 eV
Virial Ratio       :            2.00517748


DFT components:
N(Alpha)           :       30.999990646670 electrons
N(Beta)            :       30.999990646670 electrons
N(Total)           :       61.999981293340 electrons
E(X)               :      -61.537191319790 Eh       
E(C)               :       -2.151644457014 Eh       
E(XC)              :      -63.688835776804 Eh       

---------------
SCF CONVERGENCE
---------------

  Last Energy change         ...    1.5045e-08  Tolerance :   1.0000e-06
  Last MAX-Density change    ...    8.1824e-05  Tolerance :   1.0000e-05
  Last RMS-Density change    ...    2.3373e-06  Tolerance :   1.0000e-06
  Last Orbital Gradient      ...    3.2877e-05  Tolerance :   5.0000e-05
  Last Orbital Rotation      ...    4.6036e-05  Tolerance :   5.0000e-05

             **** THE GBW FILE WAS UPDATED (7071.gbw) ****
             **** DENSITY FILE WAS UPDATED (7071.scfp.tmp) ****
             **** ENERGY FILE WAS UPDATED (7071.en.tmp) ****

                    ********************************
                    * MULLIKEN POPULATION ANALYSIS *
                    ********************************

-----------------------
MULLIKEN ATOMIC CHARGES
-----------------------
   0 C :    0.096261
   1 N :   -0.140695
   2 C :   -0.024077
   3 S :   -0.268209
   4 N :   -0.018023
   5 C :    0.009617
   6 C :   -0.069016
   7 H :    0.022734
   8 H :    0.039823
   9 H :    0.049333
  10 H :    0.118417
  11 H :    0.119997
  12 H :    0.008384
  13 H :    0.023374
  14 H :    0.032080
Sum of atomic charges:    0.0000000

--------------------------------
MULLIKEN REDUCED ORBITAL CHARGES
--------------------------------
  0 C s       :     2.969385  s :     2.969385
      pz      :     0.914321  p :     2.896085
      px      :     0.969987
      py      :     1.011777
      dz2     :     0.011925  d :     0.038269
      dxz     :     0.009937
      dyz     :     0.004142
      dx2y2   :     0.008256
      dxy     :     0.004009
  1 N s       :     3.352047  s :     3.352047
      pz      :     1.388093  p :     3.766888
      px      :     1.306816
      py      :     1.071979
      dz2     :     0.004543  d :     0.021761
      dxz     :     0.002534
      dyz     :     0.004435
      dx2y2   :     0.003830
      dxy     :     0.006419
  2 C s       :     3.064344  s :     3.064344
      pz      :     0.934715  p :     2.872081
      px      :     0.959905
      py      :     0.977461
      dz2     :     0.018681  d :     0.087651
      dxz     :     0.012128
      dyz     :     0.019242
      dx2y2   :     0.020889
      dxy     :     0.016711
  3 S s       :     5.939247  s :     5.939247
      pz      :     3.585055  p :    10.277398
      px      :     3.496045
      py      :     3.196297
      dz2     :     0.006527  d :     0.051564
      dxz     :     0.003620
      dyz     :     0.014412
      dx2y2   :     0.011218
      dxy     :     0.015787
  4 N s       :     3.318203  s :     3.318203
      pz      :     1.266800  p :     3.678306
      px      :     1.358329
      py      :     1.053177
      dz2     :     0.005535  d :     0.021514
      dxz     :     0.003878
      dyz     :     0.004016
      dx2y2   :     0.004633
      dxy     :     0.003452
  5 C s       :     3.075271  s :     3.075271
      pz      :     0.970513  p :     2.864805
      px      :     0.984841
      py      :     0.909450
      dz2     :     0.011898  d :     0.050308
      dxz     :     0.006015
      dyz     :     0.010361
      dx2y2   :     0.008830
      dxy     :     0.013204
  6 C s       :     3.104741  s :     3.104741
      pz      :     1.020870  p :     2.941978
      px      :     1.006634
      py      :     0.914474
      dz2     :     0.004661  d :     0.022296
      dxz     :     0.003994
      dyz     :     0.003975
      dx2y2   :     0.004811
      dxy     :     0.004856
  7 H s       :     0.954238  s :     0.954238
      pz      :     0.004438  p :     0.023028
      px      :     0.004914
      py      :     0.013676
  8 H s       :     0.937291  s :     0.937291
      pz      :     0.010824  p :     0.022886
      px      :     0.004986
      py      :     0.007076
  9 H s       :     0.927241  s :     0.927241
      pz      :     0.004193  p :     0.023426
      px      :     0.011532
      py      :     0.007701
 10 H s       :     0.835654  s :     0.835654
      pz      :     0.012258  p :     0.045929
      px      :     0.015980
      py      :     0.017691
 11 H s       :     0.835143  s :     0.835143
      pz      :     0.009469  p :     0.044860
      px      :     0.010721
      py      :     0.024670
 12 H s       :     0.968392  s :     0.968392
      pz      :     0.004811  p :     0.023224
      px      :     0.006840
      py      :     0.011574
 13 H s       :     0.951971  s :     0.951971
      pz      :     0.005389  p :     0.024655
      px      :     0.007621
      py      :     0.011645
 14 H s       :     0.942958  s :     0.942958
      pz      :     0.008576  p :     0.024962
      px      :     0.005986
      py      :     0.010401


                     *******************************
                     * LOEWDIN POPULATION ANALYSIS *
                     *******************************

----------------------
LOEWDIN ATOMIC CHARGES
----------------------
   0 C :    0.010307
   1 N :    0.003053
   2 C :   -0.121793
   3 S :   -0.133107
   4 N :    0.040244
   5 C :   -0.004859
   6 C :   -0.110808
   7 H :    0.025790
   8 H :    0.025521
   9 H :    0.031935
  10 H :    0.068630
  11 H :    0.083460
  12 H :    0.023889
  13 H :    0.025498
  14 H :    0.032240

-------------------------------
LOEWDIN REDUCED ORBITAL CHARGES
-------------------------------
  0 C s       :     2.831488  s :     2.831488
      pz      :     0.974688  p :     3.061521
      px      :     1.010692
      py      :     1.076141
      dz2     :     0.031079  d :     0.096684
      dxz     :     0.024849
      dyz     :     0.009650
      dx2y2   :     0.021603
      dxy     :     0.009503
  1 N s       :     3.048043  s :     3.048043
      pz      :     1.376664  p :     3.892156
      px      :     1.335900
      py      :     1.179592
      dz2     :     0.010488  d :     0.056747
      dxz     :     0.006096
      dyz     :     0.011414
      dx2y2   :     0.011536
      dxy     :     0.017214
  2 C s       :     2.885727  s :     2.885727
      pz      :     0.982579  p :     3.036995
      px      :     0.987504
      py      :     1.066912
      dz2     :     0.040913  d :     0.199071
      dxz     :     0.028793
      dyz     :     0.043114
      dx2y2   :     0.049934
      dxy     :     0.036317
  3 S s       :     5.666181  s :     5.666181
      pz      :     3.590383  p :    10.394592
      px      :     3.514235
      py      :     3.289974
      dz2     :     0.008546  d :     0.072334
      dxz     :     0.004943
      dyz     :     0.020434
      dx2y2   :     0.015738
      dxy     :     0.022673
  4 N s       :     3.040779  s :     3.040779
      pz      :     1.313278  p :     3.860143
      px      :     1.374357
      py      :     1.172508
      dz2     :     0.012798  d :     0.058834
      dxz     :     0.010336
      dyz     :     0.012527
      dx2y2   :     0.013402
      dxy     :     0.009771
  5 C s       :     2.849738  s :     2.849738
      pz      :     1.006862  p :     3.028860
      px      :     1.041658
      py      :     0.980341
      dz2     :     0.026628  d :     0.126262
      dxz     :     0.016635
      dyz     :     0.026680
      dx2y2   :     0.022057
      dxy     :     0.034261
  6 C s       :     2.877362  s :     2.877362
      pz      :     1.064281  p :     3.168685
      px      :     1.056964
      py      :     1.047440
      dz2     :     0.010885  d :     0.064762
      dxz     :     0.012749
      dyz     :     0.012452
      dx2y2   :     0.013532
      dxy     :     0.015143
  7 H s       :     0.908418  s :     0.908418
      pz      :     0.011833  p :     0.065792
      px      :     0.013114
      py      :     0.040844
  8 H s       :     0.907047  s :     0.907047
      pz      :     0.034509  p :     0.067432
      px      :     0.014850
      py      :     0.018073
  9 H s       :     0.899828  s :     0.899828
      pz      :     0.012334  p :     0.068237
      px      :     0.036231
      py      :     0.019671
 10 H s       :     0.800300  s :     0.800300
      pz      :     0.035026  p :     0.131070
      px      :     0.047687
      py      :     0.048358
 11 H s       :     0.791663  s :     0.791663
      pz      :     0.026237  p :     0.124877
      px      :     0.031089
      py      :     0.067551
 12 H s       :     0.906064  s :     0.906064
      pz      :     0.013773  p :     0.070046
      px      :     0.020123
      py      :     0.036151
 13 H s       :     0.903223  s :     0.903223
      pz      :     0.015028  p :     0.071279
      px      :     0.021195
      py      :     0.035055
 14 H s       :     0.895906  s :     0.895906
      pz      :     0.024474  p :     0.071854
      px      :     0.016407
      py      :     0.030973


                      *****************************
                      * MAYER POPULATION ANALYSIS *
                      *****************************

  NA   - Mulliken gross atomic population
  ZA   - Total nuclear charge
  QA   - Mulliken gross atomic charge
  VA   - Mayer's total valence
  BVA  - Mayer's bonded valence
  FA   - Mayer's free valence

  ATOM       NA         ZA         QA         VA         BVA        FA
  0 C      5.9037     6.0000     0.0963     3.9246     3.9246     0.0000
  1 N      7.1407     7.0000    -0.1407     3.3841     3.3841    -0.0000
  2 C      6.0241     6.0000    -0.0241     4.1090     4.1090    -0.0000
  3 S     16.2682    16.0000    -0.2682     1.9471     1.9471    -0.0000
  4 N      7.0180     7.0000    -0.0180     3.3373     3.3373    -0.0000
  5 C      5.9904     6.0000     0.0096     4.0866     4.0866     0.0000
  6 C      6.0690     6.0000    -0.0690     3.9344     3.9344     0.0000
  7 H      0.9773     1.0000     0.0227     0.9898     0.9898     0.0000
  8 H      0.9602     1.0000     0.0398     1.0054     1.0054    -0.0000
  9 H      0.9507     1.0000     0.0493     1.0173     1.0173     0.0000
 10 H      0.8816     1.0000     0.1184     1.0101     1.0101     0.0000
 11 H      0.8800     1.0000     0.1200     1.0357     1.0357     0.0000
 12 H      0.9916     1.0000     0.0084     1.0028     1.0028     0.0000
 13 H      0.9766     1.0000     0.0234     0.9889     0.9889     0.0000
 14 H      0.9679     1.0000     0.0321     0.9811     0.9811    -0.0000

  Mayer bond orders larger than 0.1
B(  0-C ,  1-N ) :   1.0183 B(  0-C ,  7-H ) :   0.9628 B(  0-C ,  8-H ) :   0.9594 
B(  0-C ,  9-H ) :   0.9600 B(  1-N ,  2-C ) :   1.2675 B(  1-N , 10-H ) :   0.9179 
B(  2-C ,  3-S ) :   1.5719 B(  2-C ,  4-N ) :   1.1634 B(  4-N ,  5-C ) :   1.1318 
B(  4-N , 11-H ) :   0.9080 B(  5-C ,  6-C ) :   1.8922 B(  5-C , 12-H ) :   0.9377 
B(  6-C , 13-H ) :   0.9557 B(  6-C , 14-H ) :   0.9409 


 *********************************** NBO 6.0 ***********************************
             N A T U R A L   A T O M I C   O R B I T A L   A N D
          N A T U R A L   B O N D   O R B I T A L   A N A L Y S I S
 ***************************** Kiya KiyaLu (100703) ****************************
  (c) Copyright 1996-2015 Board of Regents of the University of Wisconsin System
      on behalf of the Theoretical Chemistry Institute.  All rights reserved.

          Cite this program as:

          NBO 6.0.  E. D. Glendening, J. K. Badenhoop, A. E. Reed,
          J. E. Carpenter, J. A. Bohmann, C. M. Morales, C. R. Landis,
          and F. Weinhold (Theoretical Chemistry Institute, University
          of Wisconsin, Madison, WI, 2013); http://nbo6.chem.wisc.edu/

       /NPA    / : Natural Population Analysis
       /NBO    / : Natural Bond Orbital Analysis
       /AONBO  / : Write the AO to NBO transformation to lfn77
       /FILE   / : Set to 7071

 Filename set to 7071

 Job title:  *** NBO job generated by orca_scf

 Warning: MOs are non-orthogonal; program will continue

 Warning: -1593.40947 electrons reside outside the linearly independent MO space


 NATURAL POPULATIONS:  Natural atomic orbital occupancies

  NAO Atom No lang   Type(AO)    Occupancy      Energy
 -------------------------------------------------------
   1    C  1  s      Cor( 1s)     1.99926      -9.82277
   2    C  1  s      Val( 2s)     1.07684      -0.22696
   3    C  1  s      Ryd( 3s)     0.00097       0.76380
   4    C  1  px     Val( 2p)     1.09069      -0.08124
   5    C  1  px     Ryd( 3p)     0.00145       0.47362
   6    C  1  py     Val( 2p)     1.22297      -0.08618
   7    C  1  py     Ryd( 3p)     0.00396       0.60238
   8    C  1  pz     Val( 2p)     1.03077      -0.07590
   9    C  1  pz     Ryd( 3p)     0.00160       0.45657
  10    C  1  dxy    Ryd( 3d)     0.00037       2.14948
  11    C  1  dxz    Ryd( 3d)     0.00100       2.19927
  12    C  1  dyz    Ryd( 3d)     0.00034       2.12807
  13    C  1  dx2y2  Ryd( 3d)     0.00082       2.29438
  14    C  1  dz2    Ryd( 3d)     0.00107       2.21178

  15    N  2  s      Cor( 1s)     1.99907     -13.88086
  16    N  2  s      Val( 2s)     1.23001      -0.48255
  17    N  2  s      Ryd( 3s)     0.00170       1.02618
  18    N  2  px     Val( 2p)     1.48751      -0.23023
  19    N  2  px     Ryd( 3p)     0.00208       1.04094
  20    N  2  py     Val( 2p)     1.37606      -0.24331
  21    N  2  py     Ryd( 3p)     0.00163       0.98529
  22    N  2  pz     Val( 2p)     1.50410      -0.23434
  23    N  2  pz     Ryd( 3p)     0.00269       0.98967
  24    N  2  dxy    Ryd( 3d)     0.00088       2.59594
  25    N  2  dxz    Ryd( 3d)     0.00061       2.45421
  26    N  2  dyz    Ryd( 3d)     0.00051       2.39567
  27    N  2  dx2y2  Ryd( 3d)     0.00052       2.50392
  28    N  2  dz2    Ryd( 3d)     0.00064       2.37577

  29    C  3  s      Cor( 1s)     1.99919      -9.88202
  30    C  3  s      Val( 2s)     0.83642      -0.18617
  31    C  3  s      Ryd( 3s)     0.00191       0.36996
  32    C  3  px     Val( 2p)     0.95395      -0.12429
  33    C  3  px     Ryd( 3p)     0.00712       0.56530
  34    C  3  py     Val( 2p)     0.98509      -0.11910
  35    C  3  py     Ryd( 3p)     0.01361       0.64545
  36    C  3  pz     Val( 2p)     0.93434      -0.11166
  37    C  3  pz     Ryd( 3p)     0.00806       0.57972
  38    C  3  dxy    Ryd( 3d)     0.00197       1.98859
  39    C  3  dxz    Ryd( 3d)     0.00140       2.07038
  40    C  3  dyz    Ryd( 3d)     0.00213       2.01875
  41    C  3  dx2y2  Ryd( 3d)     0.00226       2.07424
  42    C  3  dz2    Ryd( 3d)     0.00209       1.90152

  43    S  4  s      Cor( 1s)     2.00000     -86.75413
  44    S  4  s      Cor( 2s)     1.99944      -8.54253
  45    S  4  s      Val( 3s)     1.75344      -0.65985
  46    S  4  s      Ryd( 4s)     0.00576       0.53058
  47    S  4  px     Cor( 2p)     1.99991      -5.62907
  48    S  4  px     Val( 3p)     1.53002      -0.15142
  49    S  4  px     Ryd( 4p)     0.00121       0.75279
  50    S  4  py     Cor( 2p)     1.99984      -5.63084
  51    S  4  py     Val( 3p)     1.29752      -0.13275
  52    S  4  py     Ryd( 4p)     0.00233       0.79418
  53    S  4  pz     Cor( 2p)     1.99993      -5.62786
  54    S  4  pz     Val( 3p)     1.61589      -0.14998
  55    S  4  pz     Ryd( 4p)     0.00139       0.75369
  56    S  4  dxy    Ryd( 3d)     0.00438       0.89197
  57    S  4  dxz    Ryd( 3d)     0.00103       0.79912
  58    S  4  dyz    Ryd( 3d)     0.00403       0.88726
  59    S  4  dx2y2  Ryd( 3d)     0.00309       0.92847
  60    S  4  dz2    Ryd( 3d)     0.00184       0.79239

  61    N  5  s      Cor( 1s)     1.99902     -13.88561
  62    N  5  s      Val( 2s)     1.22326      -0.47790
  63    N  5  s      Ryd( 3s)     0.00228       1.01560
  64    N  5  px     Val( 2p)     1.50687      -0.24249
  65    N  5  px     Ryd( 3p)     0.00231       0.96547
  66    N  5  py     Val( 2p)     1.39940      -0.24232
  67    N  5  py     Ryd( 3p)     0.00303       1.24934
  68    N  5  pz     Val( 2p)     1.45186      -0.24588
  69    N  5  pz     Ryd( 3p)     0.00134       0.96499
  70    N  5  dxy    Ryd( 3d)     0.00041       2.41055
  71    N  5  dxz    Ryd( 3d)     0.00076       2.56613
  72    N  5  dyz    Ryd( 3d)     0.00048       2.51447
  73    N  5  dx2y2  Ryd( 3d)     0.00065       2.58421
  74    N  5  dz2    Ryd( 3d)     0.00063       2.35376

  75    C  6  s      Cor( 1s)     1.99896      -9.82278
  76    C  6  s      Val( 2s)     0.90907      -0.15482
  77    C  6  s      Ryd( 3s)     0.00288       0.44239
  78    C  6  px     Val( 2p)     1.07470      -0.09390
  79    C  6  px     Ryd( 3p)     0.00330       0.61434
  80    C  6  py     Val( 2p)     1.02879      -0.05685
  81    C  6  py     Ryd( 3p)     0.00316       0.74098
  82    C  6  pz     Val( 2p)     1.00955      -0.09527
  83    C  6  pz     Ryd( 3p)     0.00336       0.58855
  84    C  6  dxy    Ryd( 3d)     0.00105       2.19659
  85    C  6  dxz    Ryd( 3d)     0.00069       2.21128
  86    C  6  dyz    Ryd( 3d)     0.00087       2.06325
  87    C  6  dx2y2  Ryd( 3d)     0.00075       2.14330
  88    C  6  dz2    Ryd( 3d)     0.00115       2.00048

  89    C  7  s      Cor( 1s)     1.99903      -9.77449
  90    C  7  s      Val( 2s)     1.04160      -0.18437
  91    C  7  s      Ryd( 3s)     0.00097       0.51928
  92    C  7  px     Val( 2p)     1.10264      -0.07542
  93    C  7  px     Ryd( 3p)     0.00269       0.48584
  94    C  7  py     Val( 2p)     1.20015      -0.04682
  95    C  7  py     Ryd( 3p)     0.00351       0.79582
  96    C  7  pz     Val( 2p)     1.11881      -0.08125
  97    C  7  pz     Ryd( 3p)     0.00256       0.50030
  98    C  7  dxy    Ryd( 3d)     0.00031       2.17859
  99    C  7  dxz    Ryd( 3d)     0.00062       2.18963
 100    C  7  dyz    Ryd( 3d)     0.00033       2.12771
 101    C  7  dx2y2  Ryd( 3d)     0.00057       2.13483
 102    C  7  dz2    Ryd( 3d)     0.00052       1.98716

 103    H  8  s      Val( 1s)     0.78253       0.04367
 104    H  8  s      Ryd( 2s)     0.00168       0.30343
 105    H  8  px     Ryd( 2p)     0.00017       1.64912
 106    H  8  py     Ryd( 2p)     0.00086       2.26475
 107    H  8  pz     Ryd( 2p)     0.00014       1.65147

 108    H  9  s      Val( 1s)     0.77501       0.05942
 109    H  9  s      Ryd( 2s)     0.00327       0.32210
 110    H  9  px     Ryd( 2p)     0.00018       1.73129
 111    H  9  py     Ryd( 2p)     0.00033       1.81961
 112    H  9  pz     Ryd( 2p)     0.00062       2.13079

 113    H 10  s      Val( 1s)     0.76219       0.06514
 114    H 10  s      Ryd( 2s)     0.00287       0.32903
 115    H 10  px     Ryd( 2p)     0.00068       2.15726
 116    H 10  py     Ryd( 2p)     0.00037       1.82156
 117    H 10  pz     Ryd( 2p)     0.00012       1.68728

 118    H 11  s      Val( 1s)     0.59878       0.05815
 119    H 11  s      Ryd( 2s)     0.00382       0.40188
 120    H 11  px     Ryd( 2p)     0.00077       1.98111
 121    H 11  py     Ryd( 2p)     0.00086       2.12184
 122    H 11  pz     Ryd( 2p)     0.00053       1.74792

 123    H 12  s      Val( 1s)     0.56986       0.07374
 124    H 12  s      Ryd( 2s)     0.00608       0.38327
 125    H 12  px     Ryd( 2p)     0.00038       1.74057
 126    H 12  py     Ryd( 2p)     0.00138       2.29644
 127    H 12  pz     Ryd( 2p)     0.00030       1.76790

 128    H 13  s      Val( 1s)     0.79130       0.03522
 129    H 13  s      Ryd( 2s)     0.00333       0.32634
 130    H 13  px     Ryd( 2p)     0.00033       1.84067
 131    H 13  py     Ryd( 2p)     0.00079       2.16053
 132    H 13  pz     Ryd( 2p)     0.00021       1.69364

 133    H 14  s      Val( 1s)     0.79123       0.05353
 134    H 14  s      Ryd( 2s)     0.00167       0.31248
 135    H 14  px     Ryd( 2p)     0.00037       1.82193
 136    H 14  py     Ryd( 2p)     0.00066       2.17190
 137    H 14  pz     Ryd( 2p)     0.00019       1.66771

 138    H 15  s      Val( 1s)     0.77819       0.06349
 139    H 15  s      Ryd( 2s)     0.00105       0.30345
 140    H 15  px     Ryd( 2p)     0.00024       1.73047
 141    H 15  py     Ryd( 2p)     0.00056       2.09501
 142    H 15  pz     Ryd( 2p)     0.00044       1.86404

   1 low occupancy (<1.9990e) core orbital  found on  C  6


 Summary of Natural Population Analysis:

                                     Natural Population
             Natural    ---------------------------------------------
  Atom No    Charge        Core      Valence    Rydberg      Total
 --------------------------------------------------------------------
    C  1   -0.43212      1.99926     4.42127    0.01159     6.43212
    N  2   -0.60802      1.99907     5.59768    0.01127     7.60802
    C  3    0.25045      1.99919     3.70980    0.04056     5.74955
    S  4   -0.22104      9.99911     6.19688    0.02505    16.22104
    N  5   -0.59229      1.99902     5.58139    0.01189     7.59229
    C  6   -0.03830      1.99896     4.02211    0.01723     6.03830
    C  7   -0.47433      1.99903     4.46320    0.01210     6.47433
    H  8    0.21463      0.00000     0.78253    0.00284     0.78537
    H  9    0.22059      0.00000     0.77501    0.00440     0.77941
    H 10    0.23377      0.00000     0.76219    0.00404     0.76623
    H 11    0.39525      0.00000     0.59878    0.00597     0.60475
    H 12    0.42199      0.00000     0.56986    0.00815     0.57801
    H 13    0.20404      0.00000     0.79130    0.00466     0.79596
    H 14    0.20587      0.00000     0.79123    0.00290     0.79413
    H 15    0.21951      0.00000     0.77819    0.00230     0.78049
 ====================================================================
 * Total *  0.00000     21.99364    39.84143    0.16493    62.00000

                                 Natural Population
 ---------------------------------------------------------
   Core                      21.99364 ( 99.9711% of   22)
   Valence                   39.84143 ( 99.6036% of   40)
   Natural Minimal Basis     61.83507 ( 99.7340% of   62)
   Natural Rydberg Basis      0.16493 (  0.2660% of   62)
 ---------------------------------------------------------

    Atom No         Natural Electron Configuration
 ----------------------------------------------------------------------------
      C  1      [core]2s( 1.08)2p( 3.34)3p( 0.01)
      N  2      [core]2s( 1.23)2p( 4.37)3p( 0.01)
      C  3      [core]2s( 0.84)2p( 2.87)3p( 0.03)3d( 0.01)
      S  4      [core]3s( 1.75)3p( 4.44)4s( 0.01)3d( 0.01)
      N  5      [core]2s( 1.22)2p( 4.36)3p( 0.01)
      C  6      [core]2s( 0.91)2p( 3.11)3p( 0.01)
      C  7      [core]2s( 1.04)2p( 3.42)3p( 0.01)
      H  8            1s( 0.78)
      H  9            1s( 0.78)
      H 10            1s( 0.76)
      H 11            1s( 0.60)
      H 12            1s( 0.57)2s( 0.01)
      H 13            1s( 0.79)
      H 14            1s( 0.79)
      H 15            1s( 0.78)


 NATURAL BOND ORBITAL ANALYSIS:

                            Occupancies       Lewis Structure    Low   High
         Max    Occ     -------------------  -----------------   occ   occ
  Cycle  Ctr   Thresh    Lewis   non-Lewis     CR  BD  nC  LP    (L)   (NL)
 ============================================================================
    1     2     1.90    59.28110   2.71890     11  14   0   6     5      4
    2     2     1.88    59.28110   2.71890     11  14   0   6     5      4
    3     2     1.86    59.28263   2.71737     11  14   0   6     4      4
    4     2     1.84    59.28263   2.71737     11  14   0   6     4      4
    5     2     1.83    59.28263   2.71737     11  14   0   6     4      4
    6     2     1.82    59.42543   2.57457     11  15   0   5     3      4
    7     2     1.75    60.11397   1.88603     11  16   0   4     2      4
    8     2     1.74    60.11397   1.88603     11  16   0   4     2      4
    9     2     1.72    60.59206   1.40794     11  17   0   3     1      4
   10     2     1.68    60.57511   1.42489     11  17   0   3     0      4
   11     2     1.63    60.82381   1.17619     11  16   0   4     0      3
   12     2     1.61    60.82381   1.17619     11  16   0   4     0      3
   13     2     1.51    60.41163   1.58837     11  15   0   5     0      2
   14     2     1.63    60.82381   1.17619     11  16   0   4     0      3
 ----------------------------------------------------------------------------

 Structure accepted: No low occupancy Lewis orbitals

 -------------------------------------------------------
   Core                     21.99364 ( 99.971% of  22)
   Valence Lewis            38.83017 ( 97.075% of  40)
  ==================      =============================
   Total Lewis              60.82381 ( 98.103% of  62)
  -----------------------------------------------------
   Valence non-Lewis         1.06185 (  1.713% of  62)
   Rydberg non-Lewis         0.11434 (  0.184% of  62)
  ==================      =============================
   Total non-Lewis           1.17619 (  1.897% of  62)
 -------------------------------------------------------


     (Occupancy)   Bond orbital / Coefficients / Hybrids
 ------------------ Lewis ------------------------------------------------------
   1. (1.99926) CR ( 1) C  1            s(100.00%)
                                         1.0000  0.0000  0.0000  0.0000  0.0000
                                         0.0000  0.0000  0.0000  0.0000  0.0000
                                         0.0000  0.0000  0.0000  0.0000
   2. (1.99907) CR ( 1) N  2            s(100.00%)
                                         1.0000  0.0000  0.0000  0.0000  0.0000
                                         0.0000  0.0000  0.0000  0.0000  0.0000
                                         0.0000  0.0000  0.0000  0.0000
   3. (1.99919) CR ( 1) C  3            s(100.00%)
                                         1.0000  0.0000  0.0000  0.0000  0.0000
                                         0.0000  0.0000  0.0000  0.0000  0.0000
                                         0.0000  0.0000  0.0000  0.0000
   4. (2.00000) CR ( 1) S  4            s(100.00%)
                                         1.0000  0.0000  0.0000  0.0000  0.0000
                                         0.0000  0.0000  0.0000  0.0000  0.0000
                                         0.0000  0.0000  0.0000  0.0000  0.0000
                                         0.0000  0.0000  0.0000
   5. (1.99944) CR ( 2) S  4            s(100.00%)
                                         0.0000  1.0000  0.0000  0.0000  0.0000
                                         0.0000  0.0000  0.0000  0.0000  0.0000
                                         0.0000  0.0000  0.0000  0.0000  0.0000
                                         0.0000  0.0000  0.0000
   6. (1.99991) CR ( 3) S  4            s(  0.00%)p 1.00(100.00%)
                                         0.0000  0.0000  0.0000  0.0000  1.0000
                                         0.0000  0.0000  0.0000  0.0000  0.0000
                                         0.0000  0.0000  0.0000  0.0000  0.0000
                                         0.0000  0.0000  0.0000
   7. (1.99984) CR ( 4) S  4            s(  0.00%)p 1.00(100.00%)
                                         0.0000  0.0000  0.0000  0.0000  0.0000
                                         0.0000  0.0000  1.0000  0.0000  0.0000
                                         0.0000  0.0000  0.0000  0.0000  0.0000
                                         0.0000  0.0000  0.0000
   8. (1.99993) CR ( 5) S  4            s(  0.00%)p 1.00(100.00%)
                                         0.0000  0.0000  0.0000  0.0000  0.0000
                                         0.0000  0.0000  0.0000  0.0000  0.0000
                                         1.0000  0.0000  0.0000  0.0000  0.0000
                                         0.0000  0.0000  0.0000
   9. (1.99902) CR ( 1) N  5            s(100.00%)
                                         1.0000  0.0000  0.0000  0.0000  0.0000
                                         0.0000  0.0000  0.0000  0.0000  0.0000
                                         0.0000  0.0000  0.0000  0.0000
  10. (1.99896) CR ( 1) C  6            s(100.00%)
                                         1.0000  0.0000  0.0000  0.0000  0.0000
                                         0.0000  0.0000  0.0000  0.0000  0.0000
                                         0.0000  0.0000  0.0000  0.0000
  11. (1.99903) CR ( 1) C  7            s(100.00%)
                                         1.0000  0.0000  0.0000  0.0000  0.0000
                                         0.0000  0.0000  0.0000  0.0000  0.0000
                                         0.0000  0.0000  0.0000  0.0000
  12. (1.68343) LP ( 1) N  2            s(  1.70%)p57.99( 98.29%)d 0.01(  0.01%)
                                         0.0000  0.1301 -0.0043 -0.6331 -0.0074
                                        -0.2407 -0.0013  0.7238  0.0158 -0.0076
                                         0.0052  0.0058 -0.0031  0.0029
  13. (1.98429) LP ( 1) S  4            s( 79.67%)p 0.25( 20.30%)d 0.00(  0.03%)
                                         0.0000  0.0000  0.8924 -0.0167  0.0000
                                        -0.1959 -0.0033  0.0000  0.3629  0.0064
                                         0.0000 -0.1813 -0.0031  0.0093 -0.0070
                                         0.0075  0.0076  0.0037
  14. (1.86738) LP ( 2) S  4            s(  0.06%)p99.99( 99.86%)d 1.36(  0.08%)
                                         0.0000  0.0000  0.0242 -0.0002  0.0000
                                         0.4891 -0.0100  0.0000  0.5443 -0.0101
                                         0.0000  0.6802 -0.0137 -0.0048  0.0135
                                        -0.0097  0.0186  0.0122
  15. (1.63254) LP ( 1) N  5            s(  0.06%)p99.99( 99.93%)d 0.09(  0.01%)
                                         0.0000  0.0253 -0.0010  0.7625  0.0081
                                        -0.0760 -0.0016 -0.6419 -0.0044 -0.0040
                                         0.0008  0.0035 -0.0044  0.0034
  16. (1.98760) BD ( 1) C  1- N  2
               ( 36.87%)   0.6072* C  1 s( 24.14%)p 3.14( 75.73%)d 0.01(  0.13%)
                                         0.0000  0.4909  0.0199  0.5607  0.0248
                                         0.1511 -0.0139  0.6468  0.0312  0.0054
                                         0.0313  0.0066  0.0122  0.0120
               ( 63.13%)   0.7945* N  2 s( 34.04%)p 1.94( 65.92%)d 0.00(  0.04%)
                                         0.0000  0.5834  0.0047 -0.5162 -0.0040
                                        -0.1532  0.0184 -0.6075 -0.0024 -0.0007
                                         0.0171  0.0029  0.0012  0.0070
  17. (1.98838) BD ( 1) C  1- H  8
               ( 60.90%)   0.7804* C  1 s( 24.54%)p 3.07( 75.42%)d 0.00(  0.04%)
                                         0.0000  0.4953  0.0024 -0.0990 -0.0060
                                        -0.8581  0.0109 -0.0885 -0.0051  0.0008
                                        -0.0006  0.0000 -0.0176 -0.0106
               ( 39.10%)   0.6253* H  8 s( 99.89%)p 0.00(  0.11%)
                                         0.9995 -0.0023  0.0073  0.0317  0.0062
  18. (1.98922) BD ( 1) C  1- H  9
               ( 61.60%)   0.7848* C  1 s( 25.75%)p 2.88( 74.22%)d 0.00(  0.04%)
                                         0.0000  0.5074 -0.0071  0.3110 -0.0125
                                         0.3322 -0.0088 -0.7313 -0.0020  0.0051
                                        -0.0115 -0.0100  0.0001  0.0099
               ( 38.40%)   0.6197* H  9 s( 99.90%)p 0.00(  0.10%)
                                         0.9995 -0.0059 -0.0088 -0.0141  0.0276
  19. (1.98809) BD ( 1) C  1- H 10
               ( 62.06%)   0.7878* C  1 s( 25.61%)p 2.90( 74.36%)d 0.00(  0.03%)
                                         0.0000  0.5060 -0.0061 -0.7597  0.0009
                                         0.3598 -0.0106  0.1915 -0.0119 -0.0114
                                        -0.0085  0.0042  0.0088 -0.0073
               ( 37.94%)   0.6159* H 10 s( 99.89%)p 0.00(  0.11%)
                                         0.9994 -0.0045  0.0289 -0.0151 -0.0051
  20. (1.98727) BD ( 1) N  2- C  3
               ( 61.84%)   0.7864* N  2 s( 38.69%)p 1.58( 61.25%)d 0.00(  0.06%)
                                         0.0000  0.6219  0.0088  0.1694 -0.0023
                                         0.7134 -0.0081  0.2736 -0.0029  0.0078
                                         0.0083  0.0100 -0.0154 -0.0097
               ( 38.16%)   0.6177* C  3 s( 32.54%)p 2.07( 67.34%)d 0.00(  0.12%)
                                         0.0000  0.5703  0.0127 -0.1891 -0.0084
                                        -0.7463 -0.0400 -0.2808 -0.0091  0.0090
                                         0.0072  0.0135 -0.0271 -0.0137
  21. (1.97866) BD ( 1) N  2- H 11
               ( 70.66%)   0.8406* N  2 s( 25.50%)p 2.92( 74.45%)d 0.00(  0.04%)
                                         0.0000  0.5050 -0.0065  0.5511 -0.0016
                                        -0.6392  0.0198  0.1785  0.0030 -0.0166
                                         0.0067 -0.0032  0.0005 -0.0101
               ( 29.34%)   0.5416* H 11 s( 99.80%)p 0.00(  0.20%)
                                         0.9989 -0.0084 -0.0263  0.0349 -0.0109
  22. (1.95466) BD ( 1) C  3- S  4
               ( 49.72%)   0.7052* C  3 s( 23.24%)p 3.30( 76.64%)d 0.01(  0.12%)
                                         0.0000  0.4819 -0.0131  0.1839 -0.0225
                                         0.5637 -0.0023 -0.6430  0.0297  0.0003
                                         0.0069 -0.0265 -0.0221  0.0010
               ( 50.28%)   0.7091* S  4 s( 13.47%)p 6.38( 85.88%)d 0.05(  0.65%)
                                         0.0000  0.0000  0.3617  0.0622  0.0000
                                         0.7435  0.0182  0.0000 -0.5389 -0.0375
                                         0.0000 -0.1161  0.0182 -0.0633  0.0200
                                        -0.0212 -0.0203 -0.0350
  23. (1.94973) BD ( 2) C  3- S  4
               ( 42.70%)   0.6535* C  3 s( 12.92%)p 6.73( 86.94%)d 0.01(  0.13%)
                                         0.0000  0.3594 -0.0080 -0.7937  0.0394
                                         0.3459  0.0098  0.3429 -0.0232 -0.0298
                                         0.0074  0.0075  0.0031 -0.0182
               ( 57.30%)   0.7569* S  4 s(  7.28%)p12.66( 92.21%)d 0.07(  0.51%)
                                         0.0000  0.0000  0.2658  0.0463  0.0000
                                        -0.4059  0.0151  0.0000 -0.5190 -0.0272
                                         0.0000  0.6978  0.0132 -0.0049  0.0134
                                        -0.0559 -0.0422  0.0025
  24. (1.98498) BD ( 1) C  3- N  5
               ( 37.65%)   0.6136* C  3 s( 31.20%)p 2.20( 68.67%)d 0.00(  0.13%)
                                         0.0000  0.5584  0.0143  0.5450  0.0191
                                         0.0533  0.0232  0.6209  0.0178 -0.0017
                                         0.0333 -0.0008  0.0108  0.0093
               ( 62.35%)   0.7896* N  5 s( 37.65%)p 1.66( 62.31%)d 0.00(  0.05%)
                                         0.0000  0.6135  0.0093 -0.5221 -0.0005
                                        -0.0650 -0.0124 -0.5883  0.0038  0.0035
                                         0.0207  0.0023  0.0037  0.0043
  25. (1.98376) BD ( 1) N  5- C  6
               ( 62.72%)   0.7920* N  5 s( 37.30%)p 1.68( 62.66%)d 0.00(  0.04%)
                                         0.0000  0.6107  0.0072  0.2932 -0.0055
                                        -0.5875 -0.0072  0.4419 -0.0087 -0.0065
                                         0.0095 -0.0125 -0.0103 -0.0019
               ( 37.28%)   0.6106* C  6 s( 29.07%)p 2.43( 70.79%)d 0.00(  0.13%)
                                         0.0000  0.5391  0.0129 -0.2932 -0.0055
                                         0.6251  0.0287 -0.4799 -0.0083 -0.0144
                                         0.0157 -0.0258 -0.0145 -0.0015
  26. (1.97990) BD ( 1) N  5- H 12
               ( 72.02%)   0.8486* N  5 s( 24.93%)p 3.01( 75.04%)d 0.00(  0.03%)
                                         0.0000  0.4992 -0.0092  0.2444 -0.0034
                                         0.8027 -0.0057  0.2150 -0.0025  0.0060
                                         0.0039  0.0051 -0.0134 -0.0072
               ( 27.98%)   0.5290* H 12 s( 99.76%)p 0.00(  0.24%)
                                         0.9987 -0.0120 -0.0106 -0.0473 -0.0089
  27. (1.98553) BD ( 1) C  6- C  7
               ( 51.59%)   0.7183* C  6 s( 41.79%)p 1.39( 58.16%)d 0.00(  0.05%)
                                         0.0000  0.6460  0.0236  0.6216  0.0096
                                         0.0693 -0.0073  0.4361  0.0098  0.0059
                                         0.0189  0.0028  0.0089 -0.0008
               ( 48.41%)   0.6958* C  7 s( 39.81%)p 1.51( 60.12%)d 0.00(  0.07%)
                                         0.0000  0.6306  0.0212 -0.5316 -0.0248
                                        -0.0864 -0.0065 -0.5570 -0.0153  0.0033
                                         0.0246  0.0005  0.0095  0.0035
  28. (1.97184) BD ( 2) C  6- C  7
               ( 48.23%)   0.6945* C  6 s(  0.17%)p99.99( 99.78%)d 0.34(  0.06%)
                                         0.0000  0.0400  0.0075 -0.5999  0.0117
                                         0.2629 -0.0069  0.7538 -0.0218  0.0026
                                         0.0042  0.0075 -0.0127  0.0178
               ( 51.77%)   0.7195* C  7 s(  0.18%)p99.99( 99.76%)d 0.33(  0.06%)
                                         0.0000  0.0425  0.0023 -0.6928  0.0167
                                         0.2655 -0.0077  0.6681 -0.0213 -0.0032
                                        -0.0012 -0.0060  0.0133 -0.0191
  29. (1.97210) BD ( 1) C  6- H 13
               ( 60.55%)   0.7781* C  6 s( 29.03%)p 2.44( 70.94%)d 0.00(  0.03%)
                                         0.0000  0.5380 -0.0302 -0.4083  0.0105
                                        -0.7298  0.0015 -0.0983  0.0187  0.0140
                                         0.0038  0.0038 -0.0074 -0.0075
               ( 39.45%)   0.6281* H 13 s( 99.89%)p 0.00(  0.11%)
                                         0.9994 -0.0041  0.0144  0.0298 -0.0032
  30. (1.98189) BD ( 1) C  7- H 14
               ( 60.35%)   0.7768* C  7 s( 29.98%)p 2.33( 69.98%)d 0.00(  0.04%)
                                         0.0000  0.5474 -0.0125  0.4151  0.0180
                                         0.7175 -0.0015  0.1106  0.0152  0.0120
                                         0.0025  0.0007 -0.0107 -0.0094
               ( 39.65%)   0.6297* H 14 s( 99.90%)p 0.00(  0.10%)
                                         0.9995 -0.0020 -0.0164 -0.0258 -0.0047
  31. (1.97891) BD ( 1) C  7- H 15
               ( 60.81%)   0.7798* C  7 s( 30.04%)p 2.33( 69.92%)d 0.00(  0.04%)
                                         0.0000  0.5481 -0.0057  0.2509  0.0105
                                        -0.6378  0.0042  0.4788  0.0093 -0.0040
                                         0.0049 -0.0138 -0.0107 -0.0023
               ( 39.19%)   0.6260* H 15 s( 99.91%)p 0.00(  0.09%)
                                         0.9995 -0.0004 -0.0092  0.0234 -0.0177
 ---------------- non-Lewis ----------------------------------------------------
  32. (0.00980) BD*( 1) C  1- N  2
               ( 63.13%)   0.7945* C  1 s( 24.14%)p 3.14( 75.73%)d 0.01(  0.13%)
                                         0.0000  0.4909  0.0199  0.5607  0.0248
                                         0.1511 -0.0139  0.6468  0.0312  0.0054
                                         0.0313  0.0066  0.0122  0.0120
               ( 36.87%)  -0.6072* N  2 s( 34.04%)p 1.94( 65.92%)d 0.00(  0.04%)
                                         0.0000  0.5834  0.0047 -0.5162 -0.0040
                                        -0.1532  0.0184 -0.6075 -0.0024 -0.0007
                                         0.0171  0.0029  0.0012  0.0070
  33. (0.00984) BD*( 1) C  1- H  8
               ( 39.10%)   0.6253* C  1 s( 24.54%)p 3.07( 75.42%)d 0.00(  0.04%)
                                         0.0000 -0.4953 -0.0024  0.0990  0.0060
                                         0.8581 -0.0109  0.0885  0.0051 -0.0008
                                         0.0006  0.0000  0.0176  0.0106
               ( 60.90%)  -0.7804* H  8 s( 99.89%)p 0.00(  0.11%)
                                        -0.9995  0.0023 -0.0073 -0.0317 -0.0062
  34. (0.01922) BD*( 1) C  1- H  9
               ( 38.40%)   0.6197* C  1 s( 25.75%)p 2.88( 74.22%)d 0.00(  0.04%)
                                         0.0000 -0.5074  0.0071 -0.3110  0.0125
                                        -0.3322  0.0088  0.7313  0.0020 -0.0051
                                         0.0115  0.0100 -0.0001 -0.0099
               ( 61.60%)  -0.7848* H  9 s( 99.90%)p 0.00(  0.10%)
                                        -0.9995  0.0059  0.0088  0.0141 -0.0276
  35. (0.01416) BD*( 1) C  1- H 10
               ( 37.94%)   0.6159* C  1 s( 25.61%)p 2.90( 74.36%)d 0.00(  0.03%)
                                         0.0000 -0.5060  0.0061  0.7597 -0.0009
                                        -0.3598  0.0106 -0.1915  0.0119  0.0114
                                         0.0085 -0.0042 -0.0088  0.0073
               ( 62.06%)  -0.7878* H 10 s( 99.89%)p 0.00(  0.11%)
                                        -0.9994  0.0045 -0.0289  0.0151  0.0051
  36. (0.06377) BD*( 1) N  2- C  3
               ( 38.16%)   0.6177* N  2 s( 38.69%)p 1.58( 61.25%)d 0.00(  0.06%)
                                         0.0000 -0.6219 -0.0088 -0.1694  0.0023
                                        -0.7134  0.0081 -0.2736  0.0029 -0.0078
                                        -0.0083 -0.0100  0.0154  0.0097
               ( 61.84%)  -0.7864* C  3 s( 32.54%)p 2.07( 67.34%)d 0.00(  0.12%)
                                         0.0000 -0.5703 -0.0127  0.1891  0.0084
                                         0.7463  0.0400  0.2808  0.0091 -0.0090
                                        -0.0072 -0.0135  0.0271  0.0137
  37. (0.02749) BD*( 1) N  2- H 11
               ( 29.34%)   0.5416* N  2 s( 25.50%)p 2.92( 74.45%)d 0.00(  0.04%)
                                         0.0000 -0.5050  0.0065 -0.5511  0.0016
                                         0.6392 -0.0198 -0.1785 -0.0030  0.0166
                                        -0.0067  0.0032 -0.0005  0.0101
               ( 70.66%)  -0.8406* H 11 s( 99.80%)p 0.00(  0.20%)
                                        -0.9989  0.0084  0.0263 -0.0349  0.0109
  38. (0.22371) BD*( 1) C  3- S  4
               ( 50.28%)   0.7091* C  3 s( 23.24%)p 3.30( 76.64%)d 0.01(  0.12%)
                                         0.0000  0.4819 -0.0131  0.1839 -0.0225
                                         0.5637 -0.0023 -0.6430  0.0297  0.0003
                                         0.0069 -0.0265 -0.0221  0.0010
               ( 49.72%)  -0.7052* S  4 s( 13.47%)p 6.38( 85.88%)d 0.05(  0.65%)
                                         0.0000  0.0000  0.3617  0.0622  0.0000
                                         0.7435  0.0182  0.0000 -0.5389 -0.0375
                                         0.0000 -0.1161  0.0182 -0.0633  0.0200
                                        -0.0212 -0.0203 -0.0350
  39. (0.36467) BD*( 2) C  3- S  4
               ( 57.30%)   0.7569* C  3 s( 12.92%)p 6.73( 86.94%)d 0.01(  0.13%)
                                         0.0000  0.3594 -0.0080 -0.7937  0.0394
                                         0.3459  0.0098  0.3429 -0.0232 -0.0298
                                         0.0074  0.0075  0.0031 -0.0182
               ( 42.70%)  -0.6535* S  4 s(  7.28%)p12.66( 92.21%)d 0.07(  0.51%)
                                         0.0000  0.0000  0.2658  0.0463  0.0000
                                        -0.4059  0.0151  0.0000 -0.5190 -0.0272
                                         0.0000  0.6978  0.0132 -0.0049  0.0134
                                        -0.0559 -0.0422  0.0025
  40. (0.06197) BD*( 1) C  3- N  5
               ( 62.35%)   0.7896* C  3 s( 31.20%)p 2.20( 68.67%)d 0.00(  0.13%)
                                         0.0000  0.5584  0.0143  0.5450  0.0191
                                         0.0533  0.0232  0.6209  0.0178 -0.0017
                                         0.0333 -0.0008  0.0108  0.0093
               ( 37.65%)  -0.6136* N  5 s( 37.65%)p 1.66( 62.31%)d 0.00(  0.05%)
                                         0.0000  0.6135  0.0093 -0.5221 -0.0005
                                        -0.0650 -0.0124 -0.5883  0.0038  0.0035
                                         0.0207  0.0023  0.0037  0.0043
  41. (0.03636) BD*( 1) N  5- C  6
               ( 37.28%)   0.6106* N  5 s( 37.30%)p 1.68( 62.66%)d 0.00(  0.04%)
                                         0.0000 -0.6107 -0.0072 -0.2932  0.0055
                                         0.5875  0.0072 -0.4419  0.0087  0.0065
                                        -0.0095  0.0125  0.0103  0.0019
               ( 62.72%)  -0.7920* C  6 s( 29.07%)p 2.43( 70.79%)d 0.00(  0.13%)
                                         0.0000 -0.5391 -0.0129  0.2932  0.0055
                                        -0.6251 -0.0287  0.4799  0.0083  0.0144
                                        -0.0157  0.0258  0.0145  0.0015
  42. (0.02373) BD*( 1) N  5- H 12
               ( 27.98%)   0.5290* N  5 s( 24.93%)p 3.01( 75.04%)d 0.00(  0.03%)
                                         0.0000 -0.4992  0.0092 -0.2444  0.0034
                                        -0.8027  0.0057 -0.2150  0.0025 -0.0060
                                        -0.0039 -0.0051  0.0134  0.0072
               ( 72.02%)  -0.8486* H 12 s( 99.76%)p 0.00(  0.24%)
                                        -0.9987  0.0120  0.0106  0.0473  0.0089
  43. (0.00931) BD*( 1) C  6- C  7
               ( 48.41%)   0.6958* C  6 s( 41.79%)p 1.39( 58.16%)d 0.00(  0.05%)
                                         0.0000 -0.6460 -0.0236 -0.6216 -0.0096
                                        -0.0693  0.0073 -0.4361 -0.0098 -0.0059
                                        -0.0189 -0.0028 -0.0089  0.0008
               ( 51.59%)  -0.7183* C  7 s( 39.81%)p 1.51( 60.12%)d 0.00(  0.07%)
                                         0.0000 -0.6306 -0.0212  0.5316  0.0248
                                         0.0864  0.0065  0.5570  0.0153 -0.0033
                                        -0.0246 -0.0005 -0.0095 -0.0035
  44. (0.15873) BD*( 2) C  6- C  7
               ( 51.77%)   0.7195* C  6 s(  0.17%)p99.99( 99.78%)d 0.34(  0.06%)
                                         0.0000 -0.0400 -0.0075  0.5999 -0.0117
                                        -0.2629  0.0069 -0.7538  0.0218 -0.0026
                                        -0.0042 -0.0075  0.0127 -0.0178
               ( 48.23%)  -0.6945* C  7 s(  0.18%)p99.99( 99.76%)d 0.33(  0.06%)
                                         0.0000 -0.0425 -0.0023  0.6928 -0.0167
                                        -0.2655  0.0077 -0.6681  0.0213  0.0032
                                         0.0012  0.0060 -0.0133  0.0191
  45. (0.02331) BD*( 1) C  6- H 13
               ( 39.45%)   0.6281* C  6 s( 29.03%)p 2.44( 70.94%)d 0.00(  0.03%)
                                         0.0000 -0.5380  0.0302  0.4083 -0.0105
                                         0.7298 -0.0015  0.0983 -0.0187 -0.0140
                                        -0.0038 -0.0038  0.0074  0.0075
               ( 60.55%)  -0.7781* H 13 s( 99.89%)p 0.00(  0.11%)
                                        -0.9994  0.0041 -0.0144 -0.0298  0.0032
  46. (0.01020) BD*( 1) C  7- H 14
               ( 39.65%)   0.6297* C  7 s( 29.98%)p 2.33( 69.98%)d 0.00(  0.04%)
                                         0.0000 -0.5474  0.0125 -0.4151 -0.0180
                                        -0.7175  0.0015 -0.1106 -0.0152 -0.0120
                                        -0.0025 -0.0007  0.0107  0.0094
               ( 60.35%)  -0.7768* H 14 s( 99.90%)p 0.00(  0.10%)
                                        -0.9995  0.0020  0.0164  0.0258  0.0047
  47. (0.00561) BD*( 1) C  7- H 15
               ( 39.19%)   0.6260* C  7 s( 30.04%)p 2.33( 69.92%)d 0.00(  0.04%)
                                         0.0000 -0.5481  0.0057 -0.2509 -0.0105
                                         0.6378 -0.0042 -0.4788 -0.0093  0.0040
                                        -0.0049  0.0138  0.0107  0.0023
               ( 60.81%)  -0.7798* H 15 s( 99.91%)p 0.00(  0.09%)
                                        -0.9995  0.0004  0.0092 -0.0234  0.0177
  48. (0.00411) RY ( 1) C  1            s(  9.16%)p 9.51( 87.02%)d 0.42(  3.82%)
                                         0.0000  0.0079  0.3025 -0.0059  0.1518
                                         0.0175  0.9108 -0.0076  0.1315  0.1254
                                        -0.0090  0.1362 -0.0029 -0.0622
  49. (0.00171) RY ( 2) C  1            s(  0.02%)p99.99( 54.19%)d99.99( 45.79%)
                                         0.0000  0.0001  0.0127  0.0133  0.5629
                                        -0.0013 -0.0745 -0.0115 -0.4682  0.0379
                                         0.0845  0.0005  0.3106 -0.5940
  50. (0.00067) RY ( 3) C  1            s(  9.89%)p 8.03( 79.41%)d 1.08( 10.70%)
                                         0.0000 -0.0108  0.3144 -0.0319  0.5421
                                        -0.0142 -0.2392 -0.0377  0.6636 -0.1249
                                         0.1243 -0.1564  0.1837  0.1332
  51. (0.00028) RY ( 4) C  1            s( 52.05%)p 0.21( 10.81%)d 0.71( 37.13%)
                                         0.0000 -0.0008  0.7215  0.0064 -0.1655
                                         0.0092 -0.0766  0.0054 -0.2734 -0.3790
                                        -0.0532 -0.3516 -0.3003 -0.1053
  52. (0.00020) RY ( 5) C  1            s(  2.69%)p 7.97( 21.43%)d28.23( 75.88%)
                                         0.0000 -0.0027  0.1639 -0.0023 -0.1737
                                         0.0118 -0.2201 -0.0051  0.3682  0.3064
                                        -0.0437  0.3708 -0.3876 -0.6126
  53. (0.00007) RY ( 6) C  1            s(  0.43%)p77.84( 33.36%)d99.99( 66.21%)
  54. (0.00001) RY ( 7) C  1            s(  7.01%)p 0.72(  5.02%)d12.55( 87.97%)
  55. (0.00001) RY ( 8) C  1            s(  2.36%)p 1.53(  3.60%)d39.91( 94.04%)
  56. (0.00000) RY ( 9) C  1            s( 16.37%)p 0.33(  5.44%)d 4.78( 78.19%)
  57. (0.00349) RY ( 1) N  2            s(  9.29%)p 9.30( 86.36%)d 0.47(  4.35%)
                                         0.0000 -0.0031  0.3048 -0.0089  0.4948
                                        -0.0056  0.1841  0.0138 -0.7646 -0.0441
                                         0.0279  0.1369  0.0757 -0.1278
  58. (0.00213) RY ( 2) N  2            s( 47.49%)p 1.02( 48.63%)d 0.08(  3.88%)
                                         0.0000 -0.0074  0.6891  0.0058 -0.6741
                                        -0.0113 -0.0163  0.0035 -0.1771  0.1360
                                         0.0556  0.0796 -0.0614  0.0844
  59. (0.00090) RY ( 3) N  2            s( 22.01%)p 2.51( 55.32%)d 1.03( 22.67%)
                                         0.0000  0.0088  0.4690 -0.0041  0.3438
                                        -0.0145 -0.6115 -0.0105  0.2464 -0.2501
                                        -0.1640 -0.1755 -0.2598 -0.1975
  60. (0.00049) RY ( 4) N  2            s(  3.24%)p 7.85( 25.43%)d22.02( 71.33%)
                                         0.0000 -0.0062  0.1799  0.0024  0.2605
                                        -0.0126  0.2493 -0.0022  0.3523  0.5850
                                        -0.0814  0.4960 -0.2964 -0.1749
  61. (0.00039) RY ( 5) N  2            s(  0.28%)p 1.88(  0.53%)d99.99( 99.19%)
                                         0.0000  0.0000  0.0529 -0.0074 -0.0450
                                        -0.0002  0.0016  0.0026  0.0564  0.3680
                                         0.1869 -0.4286  0.4197 -0.6795
  62. (0.00018) RY ( 6) N  2            s( 15.79%)p 3.61( 57.08%)d 1.72( 27.12%)
                                         0.0000 -0.0100  0.3973  0.0038  0.2116
                                         0.0215  0.6016  0.0065  0.4045 -0.3221
                                         0.1656 -0.2542  0.1884  0.1997
  63. (0.00004) RY ( 7) N  2            s(  0.56%)p36.14( 20.23%)d99.99( 79.21%)
  64. (0.00001) RY ( 8) N  2            s(  0.28%)p12.94(  3.68%)d99.99( 96.03%)
  65. (0.00001) RY ( 9) N  2            s(  1.12%)p 2.51(  2.82%)d85.46( 96.06%)
  66. (0.01732) RY ( 1) C  3            s(  0.23%)p99.99( 89.86%)d43.38(  9.91%)
                                         0.0000  0.0026  0.0477  0.0175 -0.4322
                                         0.0421 -0.7303  0.0440 -0.4177  0.0843
                                        -0.1488  0.0839 -0.2269 -0.1064
  67. (0.01023) RY ( 2) C  3            s(  1.93%)p48.24( 92.99%)d 2.64(  5.08%)
                                         0.0000  0.0151  0.1380  0.0081 -0.3730
                                         0.0010  0.6264 -0.0160 -0.6309  0.0566
                                        -0.0134  0.2037  0.0224 -0.0739
  68. (0.00811) RY ( 3) C  3            s(  0.17%)p99.99( 61.43%)d99.99( 38.40%)
                                         0.0000  0.0020  0.0413 -0.0502 -0.6267
                                        -0.0066  0.1663  0.0436  0.4353  0.4100
                                        -0.0048 -0.3381 -0.2118  0.2382
  69. (0.00200) RY ( 4) C  3            s( 12.89%)p 0.05(  0.68%)d 6.71( 86.43%)
                                         0.0000 -0.0006  0.3590 -0.0115 -0.0197
                                         0.0105 -0.0670 -0.0109  0.0393 -0.2440
                                         0.0777  0.4166 -0.1000  0.7844
  70. (0.00140) RY ( 5) C  3            s( 42.24%)p 0.07(  3.08%)d 1.29( 54.68%)
                                         0.0000 -0.0049  0.6499 -0.0150 -0.0608
                                         0.0098 -0.1623 -0.0179 -0.0118  0.1242
                                         0.3685 -0.2093  0.5797 -0.1257
  71. (0.00082) RY ( 6) C  3            s( 27.25%)p 0.06(  1.68%)d 2.61( 71.08%)
                                         0.0000 -0.0105  0.5219  0.0086  0.0324
                                        -0.0055  0.1095  0.0071  0.0595 -0.5065
                                        -0.2646 -0.3565 -0.4515 -0.2309
  72. (0.00055) RY ( 7) C  3            s( 14.47%)p 0.84( 12.12%)d 5.07( 73.41%)
                                         0.0000 -0.0064  0.3804 -0.0001  0.3088
                                         0.0256  0.0374 -0.0023  0.1541  0.5953
                                        -0.1192  0.4420 -0.3276 -0.2508
  73. (0.00023) RY ( 8) C  3            s(  0.02%)p99.99( 38.41%)d99.99( 61.57%)
                                         0.0000 -0.0016  0.0152  0.0026  0.4202
                                        -0.0015 -0.0127 -0.0063 -0.4553  0.3480
                                         0.0769 -0.5403 -0.2210  0.3847
  74. (0.00001) RY ( 9) C  3            s(  0.90%)p 0.19(  0.17%)d99.99( 98.92%)
  75. (0.00193) RY ( 1) S  4            s(  0.08%)p99.99( 35.33%)d99.99( 64.59%)
                                         0.0000  0.0000 -0.0003  0.0285  0.0000
                                         0.0322 -0.3958  0.0000  0.0041 -0.0098
                                         0.0000 -0.0297  0.4412  0.4431  0.0384
                                        -0.4678 -0.2127  0.4289
  76. (0.00094) RY ( 2) S  4            s(  0.26%)p99.99( 58.17%)d99.99( 41.57%)
                                         0.0000  0.0000 -0.0005  0.0506  0.0000
                                         0.0064 -0.4441  0.0000  0.0026 -0.4307
                                         0.0000 -0.0026 -0.4461  0.2196 -0.2749
                                         0.1797 -0.4674 -0.2028
  77. (0.00029) RY ( 3) S  4            s(  7.98%)p 6.35( 50.69%)d 5.18( 41.33%)
                                         0.0000  0.0000 -0.0362  0.2802  0.0000
                                        -0.0460  0.2944  0.0000  0.0984 -0.5734
                                         0.0000 -0.0414  0.2792 -0.4369  0.0474
                                        -0.3409 -0.2992 -0.1206
  78. (0.00014) RY ( 4) S  4            s( 46.41%)p 0.12(  5.79%)d 1.03( 47.80%)
                                         0.0000  0.0000 -0.0048  0.6812  0.0000
                                        -0.0170  0.0458  0.0000  0.0169 -0.2347
                                         0.0000 -0.0135 -0.0032  0.3601  0.4004
                                         0.3263  0.2743  0.0792
  79. (0.00009) RY ( 5) S  4            s(  0.00%)p 1.00(  1.95%)d50.35( 98.05%)
  80. (0.00003) RY ( 6) S  4            s( 32.08%)p 1.38( 44.14%)d 0.74( 23.78%)
  81. (0.00001) RY ( 7) S  4            s(  5.78%)p 3.04( 17.53%)d13.28( 76.69%)
  82. (0.00001) RY ( 8) S  4            s(  3.75%)p11.43( 42.80%)d14.27( 53.46%)
  83. (0.00000) RY ( 9) S  4            s(  3.19%)p14.23( 45.34%)d16.15( 51.47%)
  84. (0.00325) RY ( 1) N  5            s( 17.78%)p 4.09( 72.66%)d 0.54(  9.56%)
                                         0.0000 -0.0177  0.4213  0.0046 -0.2894
                                         0.0110 -0.7721  0.0025 -0.2158 -0.1662
                                         0.1304 -0.1578  0.1278  0.0985
  85. (0.00271) RY ( 2) N  5            s( 18.29%)p 4.40( 80.41%)d 0.07(  1.30%)
                                         0.0000  0.0010  0.4276  0.0072 -0.7041
                                         0.0044  0.4125 -0.0040  0.3716 -0.1003
                                         0.0342  0.0300 -0.0254  0.0158
  86. (0.00190) RY ( 3) N  5            s( 53.68%)p 0.82( 43.94%)d 0.04(  2.38%)
                                         0.0000  0.0011  0.7327 -0.0018  0.4686
                                         0.0112  0.3382  0.0025 -0.3245 -0.0022
                                        -0.0029 -0.1417 -0.0547  0.0263
  87. (0.00077) RY ( 4) N  5            s(  2.71%)p27.96( 75.82%)d 7.92( 21.47%)
                                         0.0000 -0.0007  0.1647  0.0004  0.3485
                                         0.0009 -0.2693  0.0014  0.7512 -0.1179
                                        -0.1777 -0.2292 -0.3395 -0.0373
[...]
                  --------  --------  --------  --------  --------  --------
  0 C               119.4     142.4     156.1     124.0     124.0     111.4
  1 N                -1.8     -29.8      -8.3      -6.6      -5.0      -0.4
  2 C                -0.1      -3.0      -0.2      -0.5      -0.1      -0.0
  3 S                 0.0       0.1      -0.2       0.1      -0.0      -0.0
  4 N                -0.0      -0.5      -0.1      -0.0       0.0      -0.0
  7 H                -1.6      -4.2     -16.0      -9.5      -2.4      -3.5
  8 H                -7.6      -1.2     -17.0      -5.4      -5.3      -5.6
  9 H                -8.0      -1.0     -14.0      -2.0     -11.5      -1.8
 10 H                -0.3      -2.8      -0.3      -0.0       0.2       0.1

                     54        55        56        57        58        59   
                   0.00000   0.00000   0.00000   0.00000   0.00000   0.00000
                   0.00001   0.00000   0.00349   0.00213   0.00090   0.00049
                  --------  --------  --------  --------  --------  --------
  0 C               110.2     124.6      -4.1      -1.9     -12.6     -11.6
  1 N                -0.6      -3.5     115.8     159.3     148.5     119.6
  2 C                -0.0      -0.2      -8.7     -43.9     -27.9      -5.0
  3 S                 0.0      -0.1      -0.6      -3.9      -0.2      -0.6
  4 N                -0.0      -0.0      -0.2       1.0      -3.2       0.4
  5 C                -0.0      -0.0      -0.5      -0.5      -0.2      -0.4
  7 H                -1.8     -10.7      -0.1      -0.0      -0.2       0.3
  8 H                -1.4      -5.1       0.1       0.1       0.2       0.0
  9 H                -6.3      -5.0       0.2      -0.0       0.4      -0.1
 10 H                -0.0      -0.1      -1.5     -10.0      -4.7      -2.4
 11 H                -0.0      -0.0      -0.0      -0.1      -0.1      -0.0
 12 H                -0.0      -0.0      -0.4       0.1       0.0      -0.1

                     60        61        62        63        64        65   
                   0.00000   0.00000   0.00000   0.00000   0.00000   0.00000
                   0.00039   0.00018   0.00004   0.00001   0.00001   0.01732
                  --------  --------  --------  --------  --------  --------
  0 C                -1.2     -25.7      -2.7      -0.8      -0.6      -5.3
  1 N               103.2     133.5     113.0     104.2     106.1     -35.4
  2 C                -1.4      -1.9      -7.1      -1.3      -1.6     182.1
  3 S                -0.0      -0.5       0.0      -0.1      -0.1      -9.5
  4 N                -0.0      -0.1      -0.7      -0.1      -0.1     -28.3
  5 C                -0.0      -0.3       0.1       0.0       0.0      -1.3
  7 H                -0.1       1.1       0.0      -0.0      -0.0      -0.1
  9 H                -0.0       0.1       0.0      -0.0       0.0      -0.1
 10 H                -0.5      -6.2      -2.6      -1.9      -3.6      -1.4
 11 H                -0.0      -0.0      -0.0      -0.0      -0.0      -0.5

                     66        67        68        69        70        71   
                   0.00000   0.00000   0.00000   0.00000   0.00000   0.00000
                   0.01023   0.00811   0.00200   0.00140   0.00082   0.00055
                  --------  --------  --------  --------  --------  --------
  0 C                -3.1      -0.2      -0.7      -3.1       1.2      -0.5
  1 N               -19.3      -2.5      -7.6     -30.6      -5.3      -2.4
  2 C               196.7     111.5     114.1     144.4     135.2     134.0
  3 S               -46.2      -5.9      -2.4      -4.9      -6.4      -3.1
  4 N               -19.3      -2.4      -2.4      -3.6     -21.1     -26.9
  5 C                -8.0      -0.2      -0.6      -1.7      -2.3       1.0
  6 C                -0.4      -0.0       0.0      -0.0      -0.1       0.2
  8 H                 0.1       0.0       0.0      -0.2      -0.1       0.0
  9 H                 0.1       0.0      -0.1      -0.1      -0.2      -0.0
 10 H                -0.1      -0.2      -0.4      -0.2      -0.5       0.0
 11 H                -0.3      -0.0      -0.1       0.1      -0.4      -2.1
 12 H                -0.0       0.0       0.2      -0.1      -0.0      -0.2

                     72        73        74        75        76        77   
                   0.00000   0.00000   0.00000   0.00000   0.00000   0.00000
                   0.00023   0.00001   0.00193   0.00094   0.00029   0.00014
                  --------  --------  --------  --------  --------  --------
  0 C                 0.2      -0.0       0.0      -0.9      -1.2      -0.8
  1 N                -4.5      -0.3       0.0      -0.1      -1.6      -2.0
  2 C               109.2     102.7      -0.3       1.8     -23.0     -31.4
  3 S                -0.4      -0.9     100.4     100.3     126.8     137.2
  4 N                -3.9      -1.1      -0.0      -0.4      -0.3      -1.5
  5 C                 0.0      -0.1      -0.0      -0.0      -0.1      -0.4
  8 H                -0.2      -0.0      -0.1      -0.1      -0.0      -0.2
  9 H                -0.1       0.0      -0.1      -0.2      -0.1      -0.2
 10 H                -0.1      -0.1      -0.0      -0.0       0.0      -0.1
 11 H                -0.1      -0.1      -0.0      -0.3      -0.5      -0.5

                     78        79        80        81        82        83   
                   0.00000   0.00000   0.00000   0.00000   0.00000   0.00000
                   0.00009   0.00003   0.00001   0.00001   0.00000   0.00325
                  --------  --------  --------  --------  --------  --------
  0 C                -0.0      -0.0      -0.4      -0.1      -0.1      -0.1
  1 N                -0.0       0.2      -0.5      -1.9      -0.9      -0.5
  2 C                -0.0       2.2      -3.4      -5.4      -4.3     -11.0
  3 S               100.1      97.8     105.0     108.1     105.9      -0.1
  4 N                 0.0       0.0      -0.3      -0.5      -0.1     139.7
  5 C                -0.0       0.0      -0.1      -0.0      -0.1     -12.3
  6 C                -0.0       0.0      -0.0      -0.0      -0.0       1.3
  9 H                -0.0      -0.1      -0.1      -0.0      -0.0      -0.0
 11 H                -0.0      -0.0      -0.2      -0.2      -0.2     -16.8
 12 H                -0.0      -0.0      -0.0      -0.0      -0.0      -0.2

                     84        85        86        87        88        89   
                   0.00000   0.00000   0.00000   0.00000   0.00000   0.00000
                   0.00271   0.00190   0.00077   0.00060   0.00012   0.00007
                  --------  --------  --------  --------  --------  --------
  0 C                -0.0      -0.7      -1.2      -0.0      -0.2      -0.0
  1 N                 0.2       0.3      -2.7       0.0      -1.1       0.0
  2 C               -10.8     -28.3     -33.8      -1.8     -10.1      -1.1
  3 S                -0.3      -1.3      -0.2      -0.1       0.3      -0.0
  4 N               133.4     162.5     153.1     103.5     118.5     109.3
  5 C               -20.5     -29.8     -15.1      -1.4      -4.0      -3.2
  6 C                -0.0      -1.8       1.2      -0.0       0.6       0.4
 11 H                -0.9      -0.4      -0.2      -0.2      -3.8      -5.2
 12 H                -0.7      -0.4      -0.9      -0.0      -0.2      -0.0
 13 H                -0.2      -0.1      -0.2      -0.0       0.0      -0.1

                     90        91        92        93        94        95   
                   0.00000   0.00000   0.00000   0.00000   0.00000   0.00000
                   0.00003   0.00002   0.00551   0.00232   0.00212   0.00090
                  --------  --------  --------  --------  --------  --------
  0 C                -0.1      -0.0      -0.1      -0.0      -0.0      -0.0
  1 N                 0.0       0.0      -0.9      -0.1      -0.4      -0.1
  2 C                -2.2      -0.6      -6.3      -1.6      -1.3      -2.8
  3 S                -0.1      -0.1      -0.6      -0.1      -0.0      -0.0
  4 N               107.3     103.7     -11.6     -10.9     -14.4     -36.3
  5 C                -2.2      -0.5     172.8     149.4     171.6     230.8
  6 C                -0.0      -0.0     -28.5     -28.1     -45.0     -90.0
 10 H                -0.0      -0.0      -0.9      -0.9       0.0      -0.5
 11 H                -2.6      -2.4      -0.2      -0.3      -0.9      -0.6
 12 H                -0.0      -0.0     -23.4      -7.9     -10.3      -1.4
 13 H                -0.0      -0.0       0.4      -0.5      -0.8       1.4
 14 H                 0.0      -0.0      -0.6       1.1       1.5      -0.5

                     96        97        98        99       100       101   
                   0.00000   0.00000   0.00000   0.00000   0.00000   0.00000
                   0.00044   0.00029   0.00014   0.00002   0.00001   0.00386
                  --------  --------  --------  --------  --------  --------
  2 C                -1.1       0.2       0.5      -0.1      -0.1      -0.1
  4 N               -12.8      -2.2      -4.1      -1.4      -0.5       2.4
  5 C               140.3     121.1     115.9     106.6     104.4     -38.9
  6 C               -24.7     -12.4      -4.1      -1.0      -1.2     172.8
 10 H                -0.3       0.0      -0.1       0.0      -0.0       0.0
 11 H                -0.3      -0.1       0.2      -0.1      -0.1      -0.4
 12 H                -1.4      -7.0      -8.6      -3.9      -2.6       0.2
 13 H                 0.4      -0.0       0.2      -0.0      -0.0     -17.2
 14 H                -0.1       0.4       0.0       0.0      -0.0     -18.8

                    102       103       104       105       106       107   
                   0.00000   0.00000   0.00000   0.00000   0.00000   0.00000
                   0.00139   0.00091   0.00007   0.00003   0.00000   0.00000
                  --------  --------  --------  --------  --------  --------
  1 N                -0.0      -0.2      -0.1      -0.0       0.0      -0.0
  4 N                -0.0      -2.4       0.1       0.2       0.1       0.0
  5 C                -5.8    -143.0     -30.4      -4.2      -2.5      -2.1
  6 C               107.4     253.5     173.9     115.8     113.1     106.9
 11 H                -0.0      -0.7       0.0       0.0      -0.0      -0.0
 12 H                -0.0      -0.8      -0.2      -0.2       0.0      -0.0
 13 H                -0.8      -2.6     -26.6      -4.5      -2.7      -2.2
 14 H                -0.7      -3.7     -16.7      -7.2      -7.9      -2.5

                    108       109       110       111       112       113   
                   0.00000   0.00000   0.00000   0.00000   0.00000   0.00000
                   0.00000   0.00000   0.00171   0.00017   0.00008   0.00002
                  --------  --------  --------  --------  --------  --------
  0 C                -0.0      -0.0     -38.5      -2.9      -4.4      -6.7
  1 N                -0.0      -0.0       1.0      -0.2      -0.1      -0.3
  2 C                -0.0      -0.0      -0.1      -0.0      -0.0       0.0
  5 C                -1.4      -2.4      -0.0      -0.0      -0.0      -0.0
  6 C               108.7     108.1      -0.0      -0.0      -0.0      -0.0
  7 H                -0.0      -0.0     140.1     103.8     105.4     107.2
  8 H                -0.0      -0.0      -0.4      -0.4      -0.4      -0.1
  9 H                -0.0      -0.0      -0.4      -0.3      -0.3      -0.1
 10 H                -0.0      -0.0      -1.5      -0.0      -0.1      -0.0
 13 H                -3.8      -2.8      -0.0      -0.0      -0.0      -0.0
 14 H                -3.4      -2.7      -0.0      -0.0      -0.0      -0.0

                    114       115       116       117       118       119   
                   0.00000   0.00000   0.00000   0.00000   0.00000   0.00000
                   0.00332   0.00017   0.00011   0.00002   0.00293   0.00017
                  --------  --------  --------  --------  --------  --------
  0 C               -37.0      -2.8      -4.1      -6.8     -37.8      -3.2
  1 N                 0.5      -0.2      -0.0      -0.2       0.6      -0.2
  2 C                -0.5      -0.0       0.0      -0.0      -0.5      -0.0
  3 S                -0.3      -0.1      -0.0      -0.0      -0.8      -0.1
  7 H                -0.5      -0.3      -0.3      -0.2      -0.5      -0.2
  8 H               138.2     104.0     104.8     107.3      -0.3      -0.6
  9 H                -0.3      -0.5      -0.4      -0.1     139.3     104.3

                    120       121       122       123       124       125   
                   0.00000   0.00000   0.00000   0.00000   0.00000   0.00000
                   0.00010   0.00002   0.00392   0.00069   0.00017   0.00006
                  --------  --------  --------  --------  --------  --------
  0 C                -4.2      -6.6      -3.0      -0.2      -0.4       0.1
  1 N                -0.1      -0.3      -8.7      -3.3      -3.7      -5.5
  2 C                -0.0      -0.0      -3.3      -0.1      -0.2      -0.2
  3 S                -0.0      -0.0      -0.1      -0.1      -0.0      -0.0
  4 N                -0.0      -0.0       0.1      -0.0      -0.1      -0.0
  5 C                -0.0      -0.0      -2.2      -0.1      -0.1      -0.0
  7 H                -0.3      -0.2      -1.4      -0.1      -0.1      -0.0
  8 H                -0.4      -0.1      -0.0       0.0      -0.0      -0.0
  9 H               105.0     107.1      -0.1      -0.0      -0.0      -0.0
 10 H                -0.0      -0.0     125.2     104.1     104.7     105.8
 12 H                -0.0      -0.0      -6.4      -0.2      -0.1      -0.1

                    126       127       128       129       130       131   
                   0.00000   0.00000   0.00000   0.00000   0.00000   0.00000
                   0.00625   0.00044   0.00015   0.00006   0.00339   0.00027
                  --------  --------  --------  --------  --------  --------
  0 C                -0.1      -0.0      -0.0       0.0      -0.0      -0.0
  1 N                -0.4      -0.0      -0.1      -0.0      -0.3      -0.0
  2 C                -3.8      -0.1      -0.3      -0.3      -0.4      -0.0
  3 S                -1.1      -0.0      -0.0      -0.2       0.0      -0.0
  4 N                -6.6      -3.4      -3.7      -5.6      -1.6      -0.1
  5 C                -2.4      -0.2      -0.3       0.0     -42.4      -3.2
  6 C                -0.5      -0.0      -0.0       0.0      -1.2      -0.1
 10 H                -0.0      -0.0      -0.0      -0.0      -6.5      -0.0
 11 H               116.8     103.8     104.5     106.1       0.0      -0.0
 12 H                -0.1      -0.0      -0.0      -0.0     153.8     103.4
 13 H                -1.7      -0.0      -0.0      -0.1       0.1      -0.0
 14 H                -0.0      -0.0      -0.0      -0.0      -1.4      -0.0

                    132       133       134       135       136       137   
                   0.00000   0.00000   0.00000   0.00000   0.00000   0.00000
                   0.00009   0.00003   0.00174   0.00026   0.00010   0.00004
                  --------  --------  --------  --------  --------  --------
  4 N                -0.3      -0.8      -0.5      -0.0      -0.0      -0.0
  5 C                -7.1      -6.7       0.8      -0.1      -0.3       0.0
  6 C                -0.2       0.6     -42.8      -3.3      -3.5      -8.5
 10 H                -0.2      -0.0      -0.0      -0.0      -0.0      -0.0
 11 H                -0.0      -0.0      -1.7      -0.0      -0.0      -0.2
 12 H               108.0     107.1       0.1      -0.0      -0.0      -0.0
 13 H                -0.0       0.0     145.3     103.5     104.5     108.8
 14 H                -0.1      -0.0      -1.2      -0.1      -0.6      -0.1

                    138       139       140       141   
                   0.00000   0.00000   0.00000   0.00000
                   0.00111   0.00030   0.00010   0.00004
                  --------  --------  --------  --------
  4 N                 0.1      -0.0      -0.0      -0.0
  5 C                 1.1      -0.0      -0.5       0.2
  6 C               -42.6      -3.3      -3.3      -9.2
 12 H                -1.5      -0.0       0.0      -0.1
 13 H                -1.2      -0.1      -0.6      -0.2
 14 H               144.0     103.5     104.4     109.3

Storing NBOs: 7071.nbo
                                    *** NBOs were stored ***

                                *** returned from GENNBO program ***

-------
TIMINGS
-------

Total SCF time: 0 days 0 hours 0 min 5 sec 

Total time                  ....       5.536 sec
Sum of individual times     ....       6.007 sec  (108.5%)

Fock matrix formation       ....       3.452 sec  ( 62.3%)
  Coulomb formation         ....       1.911 sec  ( 55.4% of F)
  Split-RI-J                ....       1.904 sec  ( 55.2% of F)
  XC integration            ....       1.536 sec  ( 44.5% of F)
    Basis function eval.    ....       0.534 sec  ( 34.8% of XC)
    Density eval.           ....       0.286 sec  ( 18.6% of XC)
    XC-Functional eval.     ....       0.102 sec  (  6.6% of XC)
    XC-Potential eval.      ....       0.575 sec  ( 37.5% of XC)
Diagonalization             ....       0.026 sec  (  0.5%)
Density matrix formation    ....       0.003 sec  (  0.1%)
Population analysis         ....       1.476 sec  ( 26.7%)
Initial guess               ....       0.357 sec  (  6.4%)
Orbital Transformation      ....       0.000 sec  (  0.0%)
Orbital Orthonormalization  ....       0.000 sec  (  0.0%)
DIIS solution               ....       0.007 sec  (  0.1%)
SOSCF solution              ....       0.013 sec  (  0.2%)
Grid generation             ....       0.675 sec  ( 12.2%)
           ************************************************************
           *              Shut down parallel processing               *
           ************************************************************

-------------------------   --------------------
FINAL SINGLE POINT ENERGY      -664.100935026024
-------------------------   --------------------


                            ***************************************
                            *     ORCA property calculations      *
                            ***************************************

                                    ---------------------
                                    Active property flags
                                    ---------------------
   (+) Dipole Moment


------------------------------------------------------------------------------
                       ORCA ELECTRIC PROPERTIES CALCULATION
------------------------------------------------------------------------------

Dipole Moment Calculation                       ... on
Quadrupole Moment Calculation                   ... off
Polarizability Calculation                      ... off
GBWName                                         ... 7071.gbw
Electron density file                           ... 7071.scfp.tmp

-------------
DIPOLE MOMENT
-------------
                                X             Y             Z
Electronic contribution:     -1.53509       5.77506      -1.19755
Nuclear contribution   :      2.04891      -7.21220       1.49804
                        -----------------------------------------
Total Dipole Moment    :      0.51383      -1.43714       0.30049
                        -----------------------------------------
Magnitude (a.u.)       :      1.55553
Magnitude (Debye)      :      3.95385


Timings for individual modules:

Sum of individual times         ...        6.699 sec (=   0.112 min)
GTO integral calculation        ...        0.472 sec (=   0.008 min)   7.1 %
SCF iterations                  ...        6.227 sec (=   0.104 min)  92.9 %
                             ****ORCA TERMINATED NORMALLY****
TOTAL RUN TIME: 0 days 0 hours 0 minutes 7 seconds 91 msec
