
                                 *****************
                                 * O   R   C   A *
                                 *****************

           --- An Ab Initio, DFT and Semiempirical electronic structure package ---

                  #######################################################
                  #                        -***-                        #
                  #  Department of molecular theory and spectroscopy    #
                  #              Directorship: Frank Neese              #
                  # Max Planck Institute for Chemical Energy Conversion #
                  #                  D-45470 Muelheim/Ruhr              #
                  #                       Germany                       #
                  #                                                     #
                  #                  All rights reserved                #
                  #                        -***-                        #
                  #######################################################


                         Program Version 3.0.3 - RELEASE   -


 With contributions from (in alphabetic order):
   Ute Becker             : Parallelization
   Dmytro Bykov           : SCF Hessian
   Dmitry Ganyushin       : Spin-Orbit,Spin-Spin,Magnetic field MRCI
   Andreas Hansen         : Spin unrestricted coupled pair/coupled cluster methods
   Dimitrios Liakos       : Extrapolation schemes; parallel MDCI
   Robert Izsak           : Overlap fitted RIJCOSX, COSX-SCS-MP3
   Christian Kollmar      : KDIIS, OOCD, Brueckner-CCSD(T), CCSD density
   Simone Kossmann        : Meta GGA functionals, TD-DFT gradient, OOMP2, MP2 Hessian
   Taras Petrenko         : DFT Hessian,TD-DFT gradient, ASA and ECA modules, normal mode analysis, Resonance Raman, ABS, FL, XAS/XES, NRVS
   Christoph Reimann      : Effective Core Potentials
   Michael Roemelt        : Restricted open shell CIS
   Christoph Riplinger    : Improved optimizer, TS searches, QM/MM, DLPNO-CCSD
   Barbara Sandhoefer     : DKH picture change effects
   Igor Schapiro          : Molecular dynamics
   Kantharuban Sivalingam : CASSCF convergence, NEVPT2
   Boris Wezisla          : Elementary symmetry handling
   Frank Wennmohs         : Technical directorship


 We gratefully acknowledge several colleagues who have allowed us to
 interface, adapt or use parts of their codes:
   Stefan Grimme, W. Hujo, H. Kruse, T. Risthaus : VdW corrections, initial TS optimization,
                                                   DFT functionals, gCP
   Ed Valeev                                     : LibInt (2-el integral package), F12 methods
   Garnet Chan, S. Sharma, R. Olivares           : DMRG
   Ulf Ekstrom                                   : XCFun DFT Library
   Mihaly Kallay                                 : mrcc  (arbitrary order and MRCC methods)
   Andreas Klamt, Michael Diedenhofen            : otool_cosmo (COSMO solvation model)
   Frank Weinhold                                : gennbo (NPA and NBO analysis)
   Christopher J. Cramer and Donald G. Truhlar   : smd solvation model


 Your calculation uses the libint2 library for the computation of 2-el integrals
 For citations please refer to: http://libint.valeyev.net

 This ORCA versions uses:
   CBLAS   interface :  Fast vector & matrix operations
   LAPACKE interface :  Fast linear algebra routines
   SCALAPACK package :  Parallel linear algebra routines


Your calculation utilizes the basis: Ahlrichs-VDZ
Cite in your paper:
H - Kr: A. Schaefer, H. Horn and R. Ahlrichs, J. Chem. Phys. 97, 2571 (1992).

Your calculation utilizes the basis: Ahlrichs SVPalls1+f
Cite in your paper:
Rb - Xe: A. Schaefer, C. Huber and R. Ahlrichs, J. Chem. Phys. 100, 5829 (1994).

================================================================================
                                        WARNINGS
                       Please study these warnings very carefully!
================================================================================
Now building the actual basis set


INFO   : the flag for use of LIBINT has been found!

================================================================================
                                       INPUT FILE
================================================================================
NAME = 7098.inp
|  1> ! RI PBE def2-SVP def2-SVP/J NBO PAL2
|  2> % maxcore 2000
|  3> % output
|  4>     # printlevel mini
|  5>     print[ P_Basis ] 0
|  6>     print[ P_SCFInfo ] 1
|  7>     print[ P_SCFIterInfo ] 1
|  8>     print[ P_OrbEn ] 0
|  9>     print[ P_Cartesian ] 0
| 10> end
| 11> *xyz 0 1
| 12>  N        0.8371110000     0.0722380000     0.0794010000 
| 13>  C        2.2073110000     0.0187470000     0.0856460000 
| 14>  C        3.1104330000     1.0363290000     0.0881370000 
| 15>  C        4.4673690000     0.5808410000     0.0949240000 
| 16>  C        4.5649410000    -0.7676450000     0.0974320000 
| 17>  O        5.6419740000    -1.5905620000     0.1035250000 
| 18>  S        3.0050770000    -1.5243230000     0.0915960000 
| 19>  H        0.3737520000     0.9591070000     0.0760800000 
| 20>  H        0.2781710000    -0.7563940000     0.0782720000 
| 21>  H        2.8274040000     2.0808380000     0.0852610000 
| 22>  H        5.3254160000     1.2420170000     0.0977570000 
| 23>  H        6.4357400000    -1.0479030000     0.1062600000 
| 24> *
| 25> 
| 26>                          ****END OF INPUT****
================================================================================

                       ****************************
                       * Single Point Calculation *
                       ****************************

--------------------------------
INTERNAL COORDINATES (ANGSTROEM)
--------------------------------
 N      0   0   0   0.000000     0.000     0.000
 C      1   0   0   1.371258     0.000     0.000
 C      2   1   0   1.360555   129.354     0.000
 C      3   2   1   1.431360   113.034   180.001
 C      4   3   2   1.352014   112.694     0.000
 O      5   4   3   1.355444   131.521   180.000
 S      5   4   3   1.733716   111.739     0.000
 H      1   2   3   1.000624   119.822     0.000
 H      1   2   3   0.999523   121.765   180.007
 H      3   2   1   1.082180   123.249     0.000
 H      4   3   2   1.083239   123.828   180.000
 H      6   5   4   0.961536   108.260     0.000

---------------------------
INTERNAL COORDINATES (A.U.)
---------------------------
 N      0   0   0   0.000000     0.000     0.000
 C      1   0   0   2.591302     0.000     0.000
 C      2   1   0   2.571075   129.354     0.000
 C      3   2   1   2.704878   113.034   180.001
 C      4   3   2   2.554936   112.694     0.000
 O      5   4   3   2.561419   131.521   180.000
 S      5   4   3   3.276249   111.739     0.000
 H      1   2   3   1.890906   119.822     0.000
 H      1   2   3   1.888825   121.765   180.007
 H      3   2   1   2.045023   123.249     0.000
 H      4   3   2   2.047025   123.828   180.000
 H      6   5   4   1.817039   108.260     0.000



           ************************************************************
           *        Program running with 2 parallel MPI-processes     *
           *              working on a common directory               *
           ************************************************************
------------------------------------------------------------------------------
                           ORCA GTO INTEGRAL CALCULATION
                           -- RI-GTO INTEGRALS CHOSEN --
------------------------------------------------------------------------------

                         BASIS SET STATISTICS AND STARTUP INFO

Gaussian basis set:
 # of primitive gaussian shells          ...  115
 # of primitive gaussian functions       ...  215
 # of contracted shells                  ...   59
 # of contracted basis functions         ...  127
 Highest angular momentum                ...    2
 Maximum contraction depth               ...    5
Auxiliary gaussian basis set:
 # of primitive gaussian shells          ...  211
 # of primitive gaussian functions       ...  577
 # of contracted shells                  ...  132
 # of contracted aux-basis functions     ...  400
 Highest angular momentum                ...    4
 Maximum contraction depth               ...    7
Ratio of auxiliary to basis functions    ...  3.15
Integral package used                  ... LIBINT
 One Electron integrals                  ... done
 Ordering auxiliary basis shells         ... done
 Integral threshhold             Thresh  ...  1.000e-10
 Primitive cut-off               TCut    ...  1.000e-11
 Pre-screening matrix                    ... done
 Shell pair data                         ... 
 Ordering of the shell pairs             ... done (   0.000 sec) 1659 of 1770 pairs
 Determination of significant pairs      ... done (   0.000 sec)
 Creation of shell pair data             ... done (   0.000 sec)
 Storage of shell pair data              ... done (   0.000 sec)
 Shell pair data done in (   0.001 sec)
 Computing two index integrals           ... done
 Cholesky decomposition of the V-matrix  ... done


Timings:
 Total evaluation time                   ...   0.148 sec (  0.002 min)
 One electron matrix time                ...   0.013 sec (  0.000 min) =  8.9%
 Schwartz matrix evaluation time         ...   0.072 sec (  0.001 min) = 48.3%
 Two index repulsion integral time       ...   0.006 sec (  0.000 min) =  4.3%
 Cholesky decomposition of V             ...   0.002 sec (  0.000 min) =  1.6%
 Three index repulsion integral time     ...   0.000 sec (  0.000 min) =  0.0%

           ************************************************************
           *              Shut down parallel processing               *
           ************************************************************


           ************************************************************
           *        Program running with 2 parallel MPI-processes     *
           *              working on a common directory               *
           ************************************************************
-------------------------------------------------------------------------------
                                 ORCA SCF
-------------------------------------------------------------------------------

------------
SCF SETTINGS
------------
Hamiltonian:
 Density Functional     Method          .... DFT(GTOs)
 Exchange Functional    Exchange        .... PBE
   PBE kappa parameter  XKappa          ....  0.804000
 Correlation Functional Correlation     .... PBE
 LDA part of GGA corr.  LDAOpt          .... PW91-LDA
 Gradients option       PostSCFGGA      .... off
   NL short-range parameter             ....  6.400000
 RI-approximation to the Coulomb term is turned on
   Number of auxiliary basis functions  .... 400


General Settings:
 Integral files         IntName         .... 7098
 Hartree-Fock type      HFTyp           .... RHF
 Total Charge           Charge          ....    0
 Multiplicity           Mult            ....    1
 Number of Electrons    NEL             ....   60
 Basis Dimension        Dim             ....  127
 Nuclear Repulsion      ENuc            ....    355.5627094498 Eh

Convergence Acceleration:
 DIIS                   CNVDIIS         .... on
   Start iteration      DIISMaxIt       ....    12
   Startup error        DIISStart       ....  0.200000
   # of expansion vecs  DIISMaxEq       ....     5
   Bias factor          DIISBfac        ....   1.050
   Max. coefficient     DIISMaxC        ....  10.000
 Newton-Raphson         CNVNR           .... off
 SOSCF                  CNVSOSCF        .... on
   Start iteration      SOSCFMaxIt      ....   150
   Startup grad/error   SOSCFStart      ....  0.003300
 Level Shifting         CNVShift        .... on
   Level shift para.    LevelShift      ....    0.2500
   Turn off err/grad.   ShiftErr        ....    0.0010
 Zerner damping         CNVZerner       .... off
 Static damping         CNVDamp         .... on
   Fraction old density DampFac         ....    0.7000
   Max. Damping (<1)    DampMax         ....    0.9800
   Min. Damping (>=0)   DampMin         ....    0.0000
   Turn off err/grad.   DampErr         ....    0.1000
 Fernandez-Rico         CNVRico         .... off

SCF Procedure:
 Maximum # iterations   MaxIter         ....   125
 SCF integral mode      SCFMode         .... Direct
   Integral package                     .... LIBINT
 Reset frequeny         DirectResetFreq ....    20
 Integral Threshold     Thresh          ....  1.000e-10 Eh
 Primitive CutOff       TCut            ....  1.000e-11 Eh

Convergence Tolerance:
 Convergence Check Mode ConvCheckMode   .... Total+1el-Energy
 Energy Change          TolE            ....  1.000e-06 Eh
 1-El. energy change                    ....  1.000e-03 Eh
 Orbital Gradient       TolG            ....  5.000e-05
 Orbital Rotation angle TolX            ....  5.000e-05
 DIIS Error             TolErr          ....  1.000e-06


Diagonalization of the overlap matrix:
Smallest eigenvalue                        ... 5.863e-04
Time for diagonalization                   ...    0.011 sec
Threshold for overlap eigenvalues          ... 1.000e-08
Number of eigenvalues below threshold      ... 0
Time for construction of square roots      ...    0.002 sec
Total time needed                          ...    0.014 sec

-------------------
DFT GRID GENERATION
-------------------

General Integration Accuracy     IntAcc      ...  4.340
Radial Grid Type                 RadialGrid  ... Gauss-Chebyshev
Angular Grid (max. acc.)         AngularGrid ... Lebedev-110
Angular grid pruning method      GridPruning ... 3 (G Style)
Weight generation scheme         WeightScheme... Becke
Basis function cutoff            BFCut       ...    1.0000e-10
Integration weight cutoff        WCut        ...    1.0000e-14
Grids for H and He will be reduced by one unit

# of grid points (after initial pruning)     ...  15818 (   0.0 sec)
# of grid points (after weights+screening)   ...  14961 (   0.0 sec)
nearest neighbour list constructed           ...    0.0 sec
Grid point re-assignment to atoms done       ...    0.0 sec
Grid point division into batches done        ...    0.0 sec
Reduced shell lists constructed in    0.1 sec

Total number of grid points                  ...    14961
Total number of batches                      ...      242
Average number of points per batch           ...       61
Average number of grid points per atom       ...     1247
Average number of shells per batch           ...    44.93 (76.16%)
Average number of basis functions per batch  ...    97.98 (77.15%)
Average number of large shells per batch     ...    37.23 (82.85%)
Average number of large basis fcns per batch ...    81.46 (83.14%)
Maximum spatial batch extension              ...  12.41, 19.85, 35.67 au
Average spatial batch extension              ...   1.16,  1.38,  2.46 au

Time for grid setup =    0.111 sec

------------------------------
INITIAL GUESS: MODEL POTENTIAL
------------------------------
Loading Hartree-Fock densities                     ... done
Calculating cut-offs                               ... done
Setting up the integral package                    ... done
Initializing the effective Hamiltonian             ... done
Starting the Coulomb interaction                   ... done (   0.0 sec)
Reading the grid                                   ... done
Mapping shells                                     ... done
Starting the XC term evaluation                    ... done (   0.1 sec)
  promolecular density results
     # of electrons  =     59.994571109
     EX              =    -61.578049267
     EC              =     -2.098496279
     EX+EC           =    -63.676545546
Transforming the Hamiltonian                       ... done (   0.0 sec)
Diagonalizing the Hamiltonian                      ... done (   0.0 sec)
Back transforming the eigenvectors                 ... done (   0.0 sec)
Now organizing SCF variables                       ... done
                      ------------------
                      INITIAL GUESS DONE (   0.3 sec)
                      ------------------
--------------
SCF ITERATIONS
--------------
ITER       Energy         Delta-E        Max-DP      RMS-DP      [F,P]     Damp
               ***  Starting incremental Fock matrix formation  ***
  0   -682.5178422823   0.000000000000 0.08269509  0.00334800  0.2216868 0.7000
  1   -682.6282492801  -0.110406997850 0.05258557  0.00222775  0.0949692 0.7000
                               ***Turning on DIIS***
  2   -682.6618098038  -0.033560523690 0.09277321  0.00300422  0.0248999 0.0000
  3   -682.7132875740  -0.051477770203 0.03659356  0.00165793  0.0558147 0.0000
  4   -682.7305607206  -0.017273146594 0.02052329  0.00055874  0.0148993 0.0000
  5   -682.7316474263  -0.001086705682 0.00620210  0.00017932  0.0051219 0.0000
                      *** Initiating the SOSCF procedure ***
                           *** Shutting down DIIS ***
                      *** Re-Reading the Fockian *** 
                      *** Removing any level shift *** 
ITER      Energy       Delta-E        Grad      Rot      Max-DP    RMS-DP
  6   -682.73174231  -0.0000948850  0.000769  0.000769  0.003415  0.000107
               *** Restarting incremental Fock matrix formation ***
  7   -682.73174760  -0.0000052866  0.000773  0.003610  0.003625  0.000129
  8   -682.73172506   0.0000225331  0.001671  0.002351  0.002272  0.000087
  9   -682.73175306  -0.0000279966  0.000198  0.000818  0.001148  0.000036
 10   -682.73175100   0.0000020602  0.000403  0.000543  0.000726  0.000024
 11   -682.73175370  -0.0000026980  0.000020  0.000065  0.000152  0.000004
 12   -682.73175369   0.0000000057  0.000032  0.000082  0.000103  0.000003
 13   -682.73175371  -0.0000000185  0.000017  0.000078  0.000064  0.000003
 14   -682.73175368   0.0000000311  0.000026  0.000049  0.000048  0.000002
                 **** Energy Check signals convergence ****
              ***Rediagonalizing the Fockian in SOSCF/NRSCF***

               *****************************************************
               *                     SUCCESS                       *
               *           SCF CONVERGED AFTER  15 CYCLES          *
               *****************************************************

Setting up the final grid:

General Integration Accuracy     IntAcc      ...  4.670
Radial Grid Type                 RadialGrid  ... Gauss-Chebyshev
Angular Grid (max. acc.)         AngularGrid ... Lebedev-302
Angular grid pruning method      GridPruning ... 3 (G Style)
Weight generation scheme         WeightScheme... Becke
Basis function cutoff            BFCut       ...    1.0000e-10
Integration weight cutoff        WCut        ...    1.0000e-14
Grids for H and He will be reduced by one unit

# of grid points (after initial pruning)     ...  61088 (   0.0 sec)
# of grid points (after weights+screening)   ...  57076 (   0.1 sec)
nearest neighbour list constructed           ...    0.0 sec
Grid point re-assignment to atoms done       ...    0.0 sec
Grid point division into batches done        ...    0.2 sec
Reduced shell lists constructed in    0.4 sec

Total number of grid points                  ...    57076
Total number of batches                      ...      897
Average number of points per batch           ...       63
Average number of grid points per atom       ...     4756
Average number of shells per batch           ...    41.55 (70.43%)
Average number of basis functions per batch  ...    90.05 (70.91%)
Average number of large shells per batch     ...    34.08 (82.00%)
Average number of large basis fcns per batch ...    73.87 (82.03%)
Maximum spatial batch extension              ...  13.18, 15.69, 23.10 au
Average spatial batch extension              ...   0.89,  0.98,  1.24 au

Final grid set up in    0.4 sec
Final integration                            ... done (   0.3 sec)
Change in XC energy                          ...    -0.000617125
Integrated number of electrons               ...    59.999984024
Previous integrated no of electrons          ...    59.997525924

----------------
TOTAL SCF ENERGY
----------------

Total Energy       :         -682.73237084 Eh          -18578.09230 eV

Components:
Nuclear Repulsion  :          355.56270945 Eh            9675.35321 eV
Electronic Energy  :        -1038.29508029 Eh          -28253.44551 eV

One Electron Energy:        -1642.63837724 Eh          -44698.46267 eV
Two Electron Energy:          604.34329695 Eh           16445.01716 eV

Virial components:
Potential Energy   :        -1362.25314904 Eh          -37068.79273 eV
Kinetic Energy     :          679.52077820 Eh           18490.70042 eV
Virial Ratio       :            2.00472626


DFT components:
N(Alpha)           :       29.999992012055 electrons
N(Beta)            :       29.999992012055 electrons
N(Total)           :       59.999984024110 electrons
E(X)               :      -62.182916210357 Eh       
E(C)               :       -2.117089086421 Eh       
E(XC)              :      -64.300005296778 Eh       

---------------
SCF CONVERGENCE
---------------

  Last Energy change         ...   -3.3416e-08  Tolerance :   1.0000e-06
  Last MAX-Density change    ...    1.1658e-05  Tolerance :   1.0000e-05
  Last RMS-Density change    ...    5.1204e-07  Tolerance :   1.0000e-06
  Last Orbital Gradient      ...    2.5633e-06  Tolerance :   5.0000e-05
  Last Orbital Rotation      ...    6.1521e-06  Tolerance :   5.0000e-05

             **** THE GBW FILE WAS UPDATED (7098.gbw) ****
             **** DENSITY FILE WAS UPDATED (7098.scfp.tmp) ****
             **** ENERGY FILE WAS UPDATED (7098.en.tmp) ****

                    ********************************
                    * MULLIKEN POPULATION ANALYSIS *
                    ********************************

-----------------------
MULLIKEN ATOMIC CHARGES
-----------------------
   0 N :   -0.066122
   1 C :   -0.102516
   2 C :   -0.006648
   3 C :   -0.021304
   4 C :   -0.001576
   5 O :   -0.163378
   6 S :    0.046345
   7 H :    0.110887
   8 H :    0.110959
   9 H :   -0.042667
  10 H :   -0.038018
  11 H :    0.174038
Sum of atomic charges:   -0.0000000

--------------------------------
MULLIKEN REDUCED ORBITAL CHARGES
--------------------------------
  0 N s       :     3.275452  s :     3.275452
      pz      :     1.763020  p :     3.776617
      px      :     1.039401
      py      :     0.974195
      dz2     :     0.001896  d :     0.014053
      dxz     :     0.003166
      dyz     :     0.000046
      dx2y2   :     0.003539
      dxy     :     0.005406
  1 C s       :     3.014847  s :     3.014847
      pz      :     1.101132  p :     3.024641
      px      :     0.920973
      py      :     1.002536
      dz2     :     0.004583  d :     0.063029
      dxz     :     0.018096
      dyz     :     0.007300
      dx2y2   :     0.018128
      dxy     :     0.014921
  2 C s       :     3.172196  s :     3.172196
      pz      :     1.147264  p :     2.802530
      px      :     0.910613
      py      :     0.744653
      dz2     :     0.002701  d :     0.031923
      dxz     :     0.007159
      dyz     :     0.003223
      dx2y2   :     0.008336
      dxy     :     0.010503
  3 C s       :     3.163132  s :     3.163132
      pz      :     1.122823  p :     2.824893
      px      :     0.850058
      py      :     0.852012
      dz2     :     0.002695  d :     0.033280
      dxz     :     0.004870
      dyz     :     0.006783
      dx2y2   :     0.010165
      dxy     :     0.008766
  4 C s       :     3.039136  s :     3.039136
      pz      :     1.137464  p :     2.885487
      px      :     0.827057
      py      :     0.920966
      dz2     :     0.005742  d :     0.076954
      dxz     :     0.012659
      dyz     :     0.013740
      dx2y2   :     0.019133
      dxy     :     0.025679
  5 O s       :     3.676962  s :     3.676962
      pz      :     1.823771  p :     4.472468
      px      :     1.131802
      py      :     1.516894
      dz2     :     0.002054  d :     0.013949
      dxz     :     0.001335
      dyz     :     0.002076
      dx2y2   :     0.001851
      dxy     :     0.006633
  6 S s       :     5.870281  s :     5.870281
      pz      :     3.727469  p :     9.980777
      px      :     3.007585
      py      :     3.245723
      dz2     :     0.011670  d :     0.102597
      dxz     :     0.021153
      dyz     :     0.012307
      dx2y2   :     0.024294
      dxy     :     0.033173
  7 H s       :     0.842196  s :     0.842196
      pz      :     0.014845  p :     0.046917
      px      :     0.011394
      py      :     0.020678
  8 H s       :     0.841804  s :     0.841804
      pz      :     0.015312  p :     0.047237
      px      :     0.012875
      py      :     0.019050
  9 H s       :     1.018159  s :     1.018159
      pz      :     0.006943  p :     0.024508
      px      :     0.004205
      py      :     0.013360
 10 H s       :     1.013619  s :     1.013619
      pz      :     0.006631  p :     0.024399
      px      :     0.009793
      py      :     0.007975
 11 H s       :     0.755138  s :     0.755138
      pz      :     0.019339  p :     0.070824
      px      :     0.030262
      py      :     0.021222


                     *******************************
                     * LOEWDIN POPULATION ANALYSIS *
                     *******************************

----------------------
LOEWDIN ATOMIC CHARGES
----------------------
   0 N :   -0.023953
   1 C :   -0.148443
   2 C :   -0.142870
   3 C :   -0.139445
   4 C :   -0.146745
   5 O :   -0.046949
   6 S :    0.368383
   7 H :    0.074561
   8 H :    0.068439
   9 H :    0.020646
  10 H :    0.022815
  11 H :    0.093563

-------------------------------
LOEWDIN REDUCED ORBITAL CHARGES
-------------------------------
  0 N s       :     3.008312  s :     3.008312
      pz      :     1.690003  p :     3.974323
      px      :     1.137998
      py      :     1.146321
      dz2     :     0.003025  d :     0.041319
      dxz     :     0.006338
      dyz     :     0.000059
      dx2y2   :     0.013267
      dxy     :     0.018629
  1 C s       :     2.881606  s :     2.881606
      pz      :     1.088230  p :     3.119791
      px      :     0.977654
      py      :     1.053907
      dz2     :     0.009582  d :     0.147046
      dxz     :     0.037875
      dyz     :     0.015328
      dx2y2   :     0.046298
      dxy     :     0.037963
  2 C s       :     2.855101  s :     2.855101
      pz      :     1.134881  p :     3.197677
      px      :     1.029969
      py      :     1.032827
      dz2     :     0.006754  d :     0.090091
      dxz     :     0.015955
      dyz     :     0.005808
      dx2y2   :     0.028525
      dxy     :     0.033049
  3 C s       :     2.861626  s :     2.861626
      pz      :     1.104568  p :     3.185061
      px      :     1.033957
      py      :     1.046536
      dz2     :     0.007014  d :     0.092759
      dxz     :     0.009849
      dyz     :     0.014469
      dx2y2   :     0.033237
      dxy     :     0.028191
  4 C s       :     2.888716  s :     2.888716
      pz      :     1.125313  p :     3.086438
      px      :     0.906442
      py      :     1.054683
      dz2     :     0.011548  d :     0.171591
      dxz     :     0.024071
      dyz     :     0.028999
      dx2y2   :     0.045779
      dxy     :     0.061194
  5 O s       :     3.416804  s :     3.416804
      pz      :     1.790601  p :     4.602404
      px      :     1.232810
      py      :     1.578994
      dz2     :     0.004179  d :     0.027741
      dxz     :     0.002662
      dyz     :     0.002308
      dx2y2   :     0.003543
      dxy     :     0.015050
  6 S s       :     5.505591  s :     5.505591
      pz      :     3.683021  p :     9.998368
      px      :     3.013778
      py      :     3.301569
      dz2     :     0.015190  d :     0.127658
      dxz     :     0.025282
      dyz     :     0.012030
      dx2y2   :     0.031057
      dxy     :     0.044099
  7 H s       :     0.797936  s :     0.797936
      pz      :     0.045827  p :     0.127503
      px      :     0.026665
      py      :     0.055011
  8 H s       :     0.802725  s :     0.802725
      pz      :     0.046740  p :     0.128836
      px      :     0.031841
      py      :     0.050255
  9 H s       :     0.907015  s :     0.907015
      pz      :     0.020235  p :     0.072339
      px      :     0.013190
      py      :     0.038914
 10 H s       :     0.905639  s :     0.905639
      pz      :     0.019228  p :     0.071547
      px      :     0.029261
      py      :     0.023058
 11 H s       :     0.727478  s :     0.727478
      pz      :     0.050268  p :     0.178960
      px      :     0.069232
      py      :     0.059459


                      *****************************
                      * MAYER POPULATION ANALYSIS *
                      *****************************

  NA   - Mulliken gross atomic population
  ZA   - Total nuclear charge
  QA   - Mulliken gross atomic charge
  VA   - Mayer's total valence
  BVA  - Mayer's bonded valence
  FA   - Mayer's free valence

  ATOM       NA         ZA         QA         VA         BVA        FA
  0 N      7.0661     7.0000    -0.0661     3.2606     3.2606    -0.0000
  1 C      6.1025     6.0000    -0.1025     4.0042     4.0042    -0.0000
  2 C      6.0066     6.0000    -0.0066     3.8319     3.8319     0.0000
  3 C      6.0213     6.0000    -0.0213     3.8189     3.8189    -0.0000
  4 C      6.0016     6.0000    -0.0016     3.9329     3.9329     0.0000
  5 O      8.1634     8.0000    -0.1634     2.2806     2.2806    -0.0000
  6 S     15.9537    16.0000     0.0463     2.3830     2.3830     0.0000
  7 H      0.8891     1.0000     0.1109     1.0054     1.0054    -0.0000
  8 H      0.8890     1.0000     0.1110     1.0039     1.0039    -0.0000
  9 H      1.0427     1.0000    -0.0427     0.9927     0.9927    -0.0000
 10 H      1.0380     1.0000    -0.0380     0.9932     0.9932    -0.0000
 11 H      0.8260     1.0000     0.1740     1.0137     1.0137    -0.0000

  Mayer bond orders larger than 0.1
B(  0-N ,  1-C ) :   1.2261 B(  0-N ,  7-H ) :   0.9549 B(  0-N ,  8-H ) :   0.9470 
B(  1-C ,  2-C ) :   1.5027 B(  1-C ,  6-S ) :   1.0855 B(  2-C ,  3-C ) :   1.1692 
B(  2-C ,  9-H ) :   0.9979 B(  3-C ,  4-C ) :   1.5155 B(  3-C , 10-H ) :   0.9876 
B(  4-C ,  5-O ) :   1.1932 B(  4-C ,  6-S ) :   1.0756 B(  5-O , 11-H ) :   0.9643 



 *********************************** NBO 6.0 ***********************************
             N A T U R A L   A T O M I C   O R B I T A L   A N D
          N A T U R A L   B O N D   O R B I T A L   A N A L Y S I S
 ***************************** Kiya KiyaLu (100703) ****************************
  (c) Copyright 1996-2015 Board of Regents of the University of Wisconsin System
      on behalf of the Theoretical Chemistry Institute.  All rights reserved.

          Cite this program as:

          NBO 6.0.  E. D. Glendening, J. K. Badenhoop, A. E. Reed,
          J. E. Carpenter, J. A. Bohmann, C. M. Morales, C. R. Landis,
          and F. Weinhold (Theoretical Chemistry Institute, University
          of Wisconsin, Madison, WI, 2013); http://nbo6.chem.wisc.edu/

       /NPA    / : Natural Population Analysis
       /NBO    / : Natural Bond Orbital Analysis
       /AONBO  / : Write the AO to NBO transformation to lfn77
       /FILE   / : Set to 7098

 Filename set to 7098

 Job title:  *** NBO job generated by orca_scf

 Warning: MOs are non-orthogonal; program will continue

 Warning: -3377.82071 electrons reside outside the linearly independent MO space


 NATURAL POPULATIONS:  Natural atomic orbital occupancies

  NAO Atom No lang   Type(AO)    Occupancy      Energy
 -------------------------------------------------------
   1    N  1  s      Cor( 1s)     1.99922     -13.86045
   2    N  1  s      Val( 2s)     1.27037      -0.47272
   3    N  1  s      Ryd( 3s)     0.00059       1.03152
   4    N  1  px     Val( 2p)     1.32621      -0.20835
   5    N  1  px     Ryd( 3p)     0.00248       0.84867
   6    N  1  py     Val( 2p)     1.39515      -0.19393
   7    N  1  py     Ryd( 3p)     0.00265       1.22149
   8    N  1  pz     Val( 2p)     1.80709      -0.20471
   9    N  1  pz     Ryd( 3p)     0.00532       0.72828
  10    N  1  dxy    Ryd( 3d)     0.00059       2.84153
  11    N  1  dxz    Ryd( 3d)     0.00034       2.24721
  12    N  1  dyz    Ryd( 3d)     0.00002       2.22596
  13    N  1  dx2y2  Ryd( 3d)     0.00054       2.74874
  14    N  1  dz2    Ryd( 3d)     0.00081       2.57190

  15    C  2  s      Cor( 1s)     1.99885      -9.82313
  16    C  2  s      Val( 2s)     0.86232      -0.16076
  17    C  2  s      Ryd( 3s)     0.00336       0.48583
  18    C  2  px     Val( 2p)     0.92741      -0.05453
  19    C  2  px     Ryd( 3p)     0.00591       0.71481
  20    C  2  py     Val( 2p)     1.05244      -0.12045
  21    C  2  py     Ryd( 3p)     0.00625       0.77537
  22    C  2  pz     Val( 2p)     1.12599      -0.12283
  23    C  2  pz     Ryd( 3p)     0.00160       0.53801
  24    C  2  dxy    Ryd( 3d)     0.00130       2.29356
  25    C  2  dxz    Ryd( 3d)     0.00209       1.83984
  26    C  2  dyz    Ryd( 3d)     0.00094       1.76412
  27    C  2  dx2y2  Ryd( 3d)     0.00170       2.22212
  28    C  2  dz2    Ryd( 3d)     0.00103       2.06651

  29    C  3  s      Cor( 1s)     1.99881      -9.74048
  30    C  3  s      Val( 2s)     0.92662      -0.10630
  31    C  3  s      Ryd( 3s)     0.00171       0.53856
  32    C  3  px     Val( 2p)     1.05995      -0.02838
  33    C  3  px     Ryd( 3p)     0.00486       0.64156
  34    C  3  py     Val( 2p)     1.18910      -0.03835
  35    C  3  py     Ryd( 3p)     0.00475       0.91511
  36    C  3  pz     Val( 2p)     1.16481      -0.08365
  37    C  3  pz     Ryd( 3p)     0.00195       0.52928
  38    C  3  dxy    Ryd( 3d)     0.00076       2.40162
  39    C  3  dxz    Ryd( 3d)     0.00066       1.86563
  40    C  3  dyz    Ryd( 3d)     0.00048       1.88025
  41    C  3  dx2y2  Ryd( 3d)     0.00046       2.40264
  42    C  3  dz2    Ryd( 3d)     0.00063       2.17048

  43    C  4  s      Cor( 1s)     1.99879      -9.74528
  44    C  4  s      Val( 2s)     0.94257      -0.11735
  45    C  4  s      Ryd( 3s)     0.00169       0.52923
  46    C  4  px     Val( 2p)     1.14642      -0.03421
  47    C  4  px     Ryd( 3p)     0.00576       0.81482
  48    C  4  py     Val( 2p)     1.12856      -0.04813
  49    C  4  py     Ryd( 3p)     0.00414       0.72932
  50    C  4  pz     Val( 2p)     1.13610      -0.08896
  51    C  4  pz     Ryd( 3p)     0.00135       0.52786
  52    C  4  dxy    Ryd( 3d)     0.00054       2.37975
  53    C  4  dxz    Ryd( 3d)     0.00057       1.84248
  54    C  4  dyz    Ryd( 3d)     0.00078       1.88293
  55    C  4  dx2y2  Ryd( 3d)     0.00075       2.38318
  56    C  4  dz2    Ryd( 3d)     0.00065       2.16285

  57    C  5  s      Cor( 1s)     1.99867      -9.84784
  58    C  5  s      Val( 2s)     0.85731      -0.17806
  59    C  5  s      Ryd( 3s)     0.00274       0.54430
  60    C  5  px     Val( 2p)     0.82686      -0.11081
  61    C  5  px     Ryd( 3p)     0.00547       0.72479
  62    C  5  py     Val( 2p)     0.99406      -0.07089
  63    C  5  py     Ryd( 3p)     0.00987       0.63616
  64    C  5  pz     Val( 2p)     1.15615      -0.13038
  65    C  5  pz     Ryd( 3p)     0.00153       0.52336
  66    C  5  dxy    Ryd( 3d)     0.00263       2.21935
  67    C  5  dxz    Ryd( 3d)     0.00183       1.73905
  68    C  5  dyz    Ryd( 3d)     0.00155       1.84968
  69    C  5  dx2y2  Ryd( 3d)     0.00178       2.22882
  70    C  5  dz2    Ryd( 3d)     0.00117       2.05699

  71    O  6  s      Cor( 1s)     1.99965     -18.59089
  72    O  6  s      Val( 2s)     1.64128      -0.80499
  73    O  6  s      Ryd( 3s)     0.00064       1.53331
  74    O  6  px     Val( 2p)     1.42076      -0.28205
  75    O  6  px     Ryd( 3p)     0.00246       1.15599
  76    O  6  py     Val( 2p)     1.71831      -0.28987
  77    O  6  py     Ryd( 3p)     0.00106       1.10167
  78    O  6  pz     Val( 2p)     1.86870      -0.26104
  79    O  6  pz     Ryd( 3p)     0.00227       0.94547
  80    O  6  dxy    Ryd( 3d)     0.00195       3.22536
  81    O  6  dxz    Ryd( 3d)     0.00015       2.64577
  82    O  6  dyz    Ryd( 3d)     0.00140       2.60481
  83    O  6  dx2y2  Ryd( 3d)     0.00111       2.80277
  84    O  6  dz2    Ryd( 3d)     0.00103       2.89989

  85    S  7  s      Cor( 1s)     2.00000     -86.99531
  86    S  7  s      Cor( 2s)     1.99906      -8.44883
  87    S  7  s      Val( 3s)     1.61052      -0.66057
  88    S  7  s      Ryd( 4s)     0.00303       0.65724
  89    S  7  px     Cor( 2p)     1.99981      -5.70542
  90    S  7  px     Val( 3p)     0.99797      -0.16848
  91    S  7  px     Ryd( 4p)     0.00355       0.77045
  92    S  7  py     Cor( 2p)     1.99983      -5.70287
  93    S  7  py     Val( 3p)     1.33173      -0.18218
  94    S  7  py     Ryd( 4p)     0.00137       0.75047
  95    S  7  pz     Cor( 2p)     1.99996      -5.69892
  96    S  7  pz     Val( 3p)     1.70041      -0.20472
  97    S  7  pz     Ryd( 4p)     0.00189       0.71905
  98    S  7  dxy    Ryd( 3d)     0.00746       1.00712
  99    S  7  dxz    Ryd( 3d)     0.00599       0.70051
 100    S  7  dyz    Ryd( 3d)     0.00448       0.70105
 101    S  7  dx2y2  Ryd( 3d)     0.00526       0.96801
 102    S  7  dz2    Ryd( 3d)     0.00464       0.87771

 103    H  8  s      Val( 1s)     0.60010       0.08170
 104    H  8  s      Ryd( 2s)     0.00202       0.34301
 105    H  8  px     Ryd( 2p)     0.00044       1.93546
 106    H  8  py     Ryd( 2p)     0.00103       2.26909
 107    H  8  pz     Ryd( 2p)     0.00073       1.59636

 108    H  9  s      Val( 1s)     0.60121       0.08055
 109    H  9  s      Ryd( 2s)     0.00203       0.33926
 110    H  9  px     Ryd( 2p)     0.00055       1.99192
 111    H  9  py     Ryd( 2p)     0.00091       2.21104
 112    H  9  pz     Ryd( 2p)     0.00079       1.59542

 113    H 10  s      Val( 1s)     0.76610       0.08214
 114    H 10  s      Ryd( 2s)     0.00150       0.31784
 115    H 10  px     Ryd( 2p)     0.00012       1.91985
 116    H 10  py     Ryd( 2p)     0.00084       2.33039
 117    H 10  pz     Ryd( 2p)     0.00034       1.61934

 118    H 11  s      Val( 1s)     0.76583       0.07463
 119    H 11  s      Ryd( 2s)     0.00166       0.31302
 120    H 11  px     Ryd( 2p)     0.00053       2.19533
 121    H 11  py     Ryd( 2p)     0.00039       2.06779
 122    H 11  pz     Ryd( 2p)     0.00033       1.61911

 123    H 12  s      Val( 1s)     0.52042       0.06604
 124    H 12  s      Ryd( 2s)     0.00174       0.38431
 125    H 12  px     Ryd( 2p)     0.00178       2.23397
 126    H 12  py     Ryd( 2p)     0.00112       1.99385
 127    H 12  pz     Ryd( 2p)     0.00140       1.59658

   1 low occupancy (<1.9990e) core orbital  found on  C  2
   1 low occupancy (<1.9990e) core orbital  found on  C  3
   1 low occupancy (<1.9990e) core orbital  found on  C  4
   1 low occupancy (<1.9990e) core orbital  found on  C  5


 Summary of Natural Population Analysis:

                                     Natural Population
             Natural    ---------------------------------------------
  Atom No    Charge        Core      Valence    Rydberg      Total
 --------------------------------------------------------------------
    N  1   -0.81137      1.99922     5.79882    0.01333     7.81137
    C  2    0.00882      1.99885     3.96816    0.02417     5.99118
    C  3   -0.35554      1.99881     4.34047    0.01625     6.35554
    C  4   -0.36867      1.99879     4.35365    0.01623     6.36867
    C  5    0.13841      1.99867     3.83437    0.02856     5.86159
    O  6   -0.66077      1.99965     6.64905    0.01206     8.66077
    S  7    0.32304      9.99866     5.64064    0.03767    15.67696
    H  8    0.39569      0.00000     0.60010    0.00421     0.60431
    H  9    0.39451      0.00000     0.60121    0.00428     0.60549
    H 10    0.23110      0.00000     0.76610    0.00280     0.76890
    H 11    0.23125      0.00000     0.76583    0.00292     0.76875
    H 12    0.47353      0.00000     0.52042    0.00605     0.52647
 ====================================================================
 * Total *  0.00000     21.99264    37.83883    0.16853    60.00000

                                 Natural Population
 ---------------------------------------------------------
   Core                      21.99264 ( 99.9666% of   22)
   Valence                   37.83883 ( 99.5759% of   38)
   Natural Minimal Basis     59.83147 ( 99.7191% of   60)
   Natural Rydberg Basis      0.16853 (  0.2809% of   60)
 ---------------------------------------------------------

    Atom No         Natural Electron Configuration
 ----------------------------------------------------------------------------
      N  1      [core]2s( 1.27)2p( 4.53)3p( 0.01)
      C  2      [core]2s( 0.86)2p( 3.11)3p( 0.01)3d( 0.01)
      C  3      [core]2s( 0.93)2p( 3.41)3p( 0.01)
      C  4      [core]2s( 0.94)2p( 3.41)3p( 0.01)
      C  5      [core]2s( 0.86)2p( 2.98)3p( 0.02)3d( 0.01)
      O  6      [core]2s( 1.64)2p( 5.01)3p( 0.01)3d( 0.01)
      S  7      [core]3s( 1.61)3p( 4.03)3d( 0.03)4p( 0.01)
      H  8            1s( 0.60)
      H  9            1s( 0.60)
      H 10            1s( 0.77)
      H 11            1s( 0.77)
      H 12            1s( 0.52)


 NATURAL BOND ORBITAL ANALYSIS:

                            Occupancies       Lewis Structure    Low   High
         Max    Occ     -------------------  -----------------   occ   occ
  Cycle  Ctr   Thresh    Lewis   non-Lewis     CR  BD  nC  LP    (L)   (NL)
 ============================================================================
    1     2     1.90    57.67968   2.32032     11  14   0   5     3      2
    2     2     1.88    57.67968   2.32032     11  14   0   5     3      2
    3     2     1.87    58.32865   1.67135     11  14   0   5     2      2
    4     2     1.80    58.86531   1.13469     11  14   0   5     1      2
    5     2     1.79    58.86531   1.13469     11  14   0   5     1      2
    6     2     1.77    58.86531   1.13469     11  14   0   5     1      2
    7     2     1.70    58.86531   1.13469     11  14   0   5     0      2
    8     2     1.63    58.86531   1.13469     11  14   0   5     0      2
    9     2     1.51    58.86531   1.13469     11  14   0   5     0      2
   10     2     1.80    58.86531   1.13469     11  14   0   5     1      2
 ----------------------------------------------------------------------------

 Strongly delocalized structure accepted

 -------------------------------------------------------
   Core                     21.99264 ( 99.967% of  22)
   Valence Lewis            36.87267 ( 97.033% of  38)
  ==================      =============================
   Total Lewis              58.86531 ( 98.109% of  60)
  -----------------------------------------------------
   Valence non-Lewis         1.03609 (  1.727% of  60)
   Rydberg non-Lewis         0.09859 (  0.164% of  60)
  ==================      =============================
   Total non-Lewis           1.13469 (  1.891% of  60)
 -------------------------------------------------------


     (Occupancy)   Bond orbital / Coefficients / Hybrids
 ------------------ Lewis ------------------------------------------------------
   1. (1.99922) CR ( 1) N  1            s(100.00%)
                                         1.0000  0.0000  0.0000  0.0000  0.0000
                                         0.0000  0.0000  0.0000  0.0000  0.0000
                                         0.0000  0.0000  0.0000  0.0000
   2. (1.99885) CR ( 1) C  2            s(100.00%)
                                         1.0000  0.0000  0.0000  0.0000  0.0000
                                         0.0000  0.0000  0.0000  0.0000  0.0000
                                         0.0000  0.0000  0.0000  0.0000
   3. (1.99881) CR ( 1) C  3            s(100.00%)
                                         1.0000  0.0000  0.0000  0.0000  0.0000
                                         0.0000  0.0000  0.0000  0.0000  0.0000
                                         0.0000  0.0000  0.0000  0.0000
   4. (1.99879) CR ( 1) C  4            s(100.00%)
                                         1.0000  0.0000  0.0000  0.0000  0.0000
                                         0.0000  0.0000  0.0000  0.0000  0.0000
                                         0.0000  0.0000  0.0000  0.0000
   5. (1.99867) CR ( 1) C  5            s(100.00%)
                                         1.0000  0.0000  0.0000  0.0000  0.0000
                                         0.0000  0.0000  0.0000  0.0000  0.0000
                                         0.0000  0.0000  0.0000  0.0000
   6. (1.99965) CR ( 1) O  6            s(100.00%)
                                         1.0000  0.0000  0.0000  0.0000  0.0000
                                         0.0000  0.0000  0.0000  0.0000  0.0000
                                         0.0000  0.0000  0.0000  0.0000
   7. (2.00000) CR ( 1) S  7            s(100.00%)
                                         1.0000  0.0000  0.0000  0.0000  0.0000
                                         0.0000  0.0000  0.0000  0.0000  0.0000
                                         0.0000  0.0000  0.0000  0.0000  0.0000
                                         0.0000  0.0000  0.0000
   8. (1.99906) CR ( 2) S  7            s(100.00%)
                                         0.0000  1.0000  0.0000  0.0000  0.0000
                                         0.0000  0.0000  0.0000  0.0000  0.0000
                                         0.0000  0.0000  0.0000  0.0000  0.0000
                                         0.0000  0.0000  0.0000
   9. (1.99981) CR ( 3) S  7            s(  0.00%)p 1.00(100.00%)
                                         0.0000  0.0000  0.0000  0.0000  1.0000
                                         0.0000  0.0000  0.0000  0.0000  0.0000
                                         0.0000  0.0000  0.0000  0.0000  0.0000
                                         0.0000  0.0000  0.0000
  10. (1.99983) CR ( 4) S  7            s(  0.00%)p 1.00(100.00%)
                                         0.0000  0.0000  0.0000  0.0000  0.0000
                                         0.0000  0.0000  1.0000  0.0000  0.0000
                                         0.0000  0.0000  0.0000  0.0000  0.0000
                                         0.0000  0.0000  0.0000
  11. (1.99996) CR ( 5) S  7            s(  0.00%)p 1.00(100.00%)
                                         0.0000  0.0000  0.0000  0.0000  0.0000
                                         0.0000  0.0000  0.0000  0.0000  0.0000
                                         1.0000  0.0000  0.0000  0.0000  0.0000
                                         0.0000  0.0000  0.0000
  12. (1.80907) LP ( 1) N  1            s(  0.00%)p 1.00(100.00%)d 0.00(  0.00%)
                                         0.0000  0.0001  0.0001  0.0044  0.0001
                                        -0.0015  0.0000 -0.9994 -0.0327  0.0000
                                        -0.0044  0.0008  0.0000  0.0000
  13. (1.97124) LP ( 1) O  6            s( 43.64%)p 1.29( 56.31%)d 0.00(  0.05%)
                                         0.0000  0.6605 -0.0069  0.0636  0.0018
                                        -0.7476  0.0109  0.0014  0.0000  0.0031
                                         0.0000  0.0001  0.0218  0.0063
  14. (1.87044) LP ( 2) O  6            s(  0.00%)p 1.00( 99.93%)d 0.00(  0.07%)
                                         0.0000  0.0000  0.0000 -0.0045  0.0001
                                         0.0015  0.0000  0.9995 -0.0145 -0.0001
                                        -0.0012  0.0267  0.0000 -0.0001
  15. (1.97821) LP ( 1) S  7            s( 61.58%)p 0.62( 38.38%)d 0.00(  0.04%)
                                         0.0000  0.0000  0.7846 -0.0169  0.0000
                                        -0.2021  0.0063  0.0000 -0.5855  0.0092
                                         0.0000  0.0000  0.0000 -0.0081  0.0000
                                         0.0000  0.0121  0.0125
  16. (1.70386) LP ( 2) S  7            s(  0.00%)p 1.00( 99.86%)d 0.00(  0.14%)
                                         0.0000  0.0000  0.0000  0.0000  0.0000
                                        -0.0045  0.0001  0.0000  0.0016  0.0000
                                         0.0000  0.9990 -0.0241 -0.0001  0.0112
                                         0.0362 -0.0001  0.0000
  17. (1.99048) BD ( 1) N  1- C  2
               ( 60.09%)   0.7752* N  1 s( 41.19%)p 1.43( 58.75%)d 0.00(  0.05%)
                                         0.0000  0.6418  0.0042  0.7653 -0.0053
                                        -0.0420  0.0012  0.0035  0.0000 -0.0021
                                         0.0002  0.0000  0.0146 -0.0173
               ( 39.91%)   0.6317* C  2 s( 32.22%)p 2.10( 67.68%)d 0.00(  0.10%)
                                         0.0000  0.5667  0.0314 -0.8208 -0.0482
                                         0.0278  0.0003 -0.0037 -0.0002  0.0017
                                         0.0003  0.0000  0.0249 -0.0199
  18. (1.98611) BD ( 1) N  1- H  8
               ( 70.05%)   0.8370* N  1 s( 29.35%)p 2.41( 70.61%)d 0.00(  0.04%)
                                         0.0000  0.5418 -0.0026 -0.4141  0.0271
                                         0.7306 -0.0098 -0.0029  0.0001 -0.0111
                                         0.0001 -0.0001 -0.0099 -0.0128
               ( 29.95%)   0.5472* H  8 s( 99.80%)p 0.00(  0.20%)
                                         0.9990 -0.0033  0.0206 -0.0391  0.0001
  19. (1.99057) BD ( 1) N  1- H  9
               ( 70.01%)   0.8367* N  1 s( 29.32%)p 2.41( 70.64%)d 0.00(  0.04%)
                                         0.0000  0.5415 -0.0004 -0.4914  0.0280
                                        -0.6812  0.0062 -0.0011  0.0001  0.0133
                                         0.0000  0.0000 -0.0075 -0.0129
               ( 29.99%)   0.5476* H  9 s( 99.80%)p 0.00(  0.20%)
                                         0.9990 -0.0029  0.0258  0.0360  0.0001
  20. (1.97519) BD ( 1) C  2- C  3
               ( 51.12%)   0.7150* C  2 s( 42.18%)p 1.37( 57.78%)d 0.00(  0.04%)
                                         0.0000  0.6495 -0.0033  0.4706 -0.0296
                                         0.5958  0.0219  0.0012 -0.0002  0.0111
                                         0.0001  0.0000 -0.0016 -0.0157
               ( 48.88%)   0.6992* C  3 s( 35.84%)p 1.79( 64.09%)d 0.00(  0.07%)
                                         0.0000  0.5984  0.0174 -0.5722 -0.0306
                                        -0.5590  0.0122 -0.0017 -0.0001  0.0180
                                         0.0001  0.0000 -0.0031 -0.0179
  21. (1.88928) BD ( 2) C  2- C  3
               ( 48.67%)   0.6977* C  2 s(  0.00%)p 1.00( 99.95%)d 0.00(  0.05%)
                                         0.0000  0.0000  0.0000  0.0045  0.0000
                                        -0.0015  0.0000 -0.9997  0.0107  0.0000
                                        -0.0213 -0.0090  0.0001 -0.0001
               ( 51.33%)   0.7164* C  3 s(  0.00%)p 1.00( 99.94%)d 0.00(  0.06%)
                                         0.0000  0.0000  0.0000  0.0045  0.0000
                                        -0.0015  0.0000 -0.9997  0.0103 -0.0001
                                         0.0105  0.0210 -0.0001  0.0000
  22. (1.96681) BD ( 1) C  2- S  7
               ( 51.09%)   0.7148* C  2 s( 25.19%)p 2.96( 74.67%)d 0.01(  0.14%)
                                         0.0000  0.5015 -0.0184  0.3202 -0.0349
                                        -0.8018  0.0013  0.0027 -0.0001 -0.0226
                                         0.0001 -0.0002 -0.0216 -0.0217
               ( 48.91%)   0.6993* S  7 s( 19.01%)p 4.22( 80.25%)d 0.04(  0.74%)
                                         0.0000  0.0000  0.4348  0.0316  0.0000
                                        -0.4892 -0.0409  0.0000  0.7492  0.0132
                                         0.0000 -0.0034 -0.0002 -0.0554  0.0002
                                        -0.0004 -0.0460 -0.0467
  23. (1.95835) BD ( 1) C  3- C  4
               ( 49.70%)   0.7050* C  3 s( 34.10%)p 1.93( 65.86%)d 0.00(  0.05%)
                                         0.0000  0.5839  0.0068  0.7896  0.0126
                                        -0.1826  0.0404  0.0038  0.0000 -0.0117
                                         0.0002 -0.0001  0.0091 -0.0157
               ( 50.30%)   0.7092* C  4 s( 34.57%)p 1.89( 65.38%)d 0.00(  0.05%)
                                         0.0000  0.5880  0.0060 -0.7373  0.0141
                                         0.3296  0.0363 -0.0038  0.0000 -0.0048
                                         0.0002  0.0000  0.0134 -0.0159
  24. (1.97217) BD ( 1) C  3- H 10
               ( 61.68%)   0.7854* C  3 s( 29.94%)p 2.34( 70.03%)d 0.00(  0.03%)
                                         0.0000  0.5469 -0.0187 -0.2180  0.0083
                                         0.8079  0.0061 -0.0022  0.0000 -0.0072
                                         0.0000 -0.0001 -0.0101 -0.0102
               ( 38.32%)   0.6190* H 10 s( 99.90%)p 0.00(  0.10%)
                                         0.9995 -0.0014  0.0077 -0.0303  0.0001
  25. (1.98339) BD ( 1) C  4- C  5
               ( 50.15%)   0.7082* C  4 s( 35.51%)p 1.81( 64.42%)d 0.00(  0.07%)
                                         0.0000  0.5957  0.0157  0.1212  0.0367
                                        -0.7925 -0.0095  0.0018  0.0002 -0.0021
                                         0.0001 -0.0001 -0.0185 -0.0179
               ( 49.85%)   0.7060* C  5 s( 45.20%)p 1.21( 54.76%)d 0.00(  0.04%)
                                         0.0000  0.6723 -0.0037  0.0122  0.0304
                                         0.7393  0.0057 -0.0011  0.0001 -0.0008
                                         0.0001 -0.0001 -0.0123 -0.0160
  26. (1.91282) BD ( 2) C  4- C  5
               ( 49.36%)   0.7025* C  4 s(  0.00%)p 1.00( 99.93%)d 0.00(  0.07%)
                                         0.0000  0.0000  0.0001 -0.0045  0.0000
                                         0.0015  0.0000  0.9996 -0.0104  0.0001
                                        -0.0024 -0.0256  0.0001  0.0001
               ( 50.64%)   0.7116* C  5 s(  0.00%)p 1.00( 99.95%)d 0.00(  0.05%)
                                         0.0000  0.0000  0.0000 -0.0045  0.0000
                                         0.0015  0.0000  0.9996 -0.0131 -0.0001
                                        -0.0109  0.0202  0.0000 -0.0001
  27. (1.97074) BD ( 1) C  4- H 11
               ( 61.67%)   0.7853* C  4 s( 29.78%)p 2.36( 70.19%)d 0.00(  0.03%)
                                         0.0000  0.5455 -0.0161  0.6638 -0.0055
                                         0.5110  0.0084  0.0022  0.0000  0.0120
                                         0.0001  0.0000  0.0052 -0.0106
               ( 38.33%)   0.6191* H 11 s( 99.91%)p 0.00(  0.09%)
                                         0.9995 -0.0014 -0.0235 -0.0196 -0.0001
  28. (1.99431) BD ( 1) C  5- O  6
               ( 32.85%)   0.5731* C  5 s( 27.59%)p 2.62( 72.21%)d 0.01(  0.20%)
                                         0.0000  0.5244  0.0298  0.6919  0.0379
                                        -0.4899 -0.0437  0.0039  0.0003 -0.0362
                                         0.0003 -0.0002  0.0086 -0.0248
               ( 67.15%)   0.8195* O  6 s( 36.71%)p 1.72( 63.20%)d 0.00(  0.09%)
                                         0.0000  0.6059  0.0046 -0.6329 -0.0052
                                         0.4810 -0.0032 -0.0036  0.0000 -0.0222
                                         0.0002 -0.0002 -0.0031 -0.0191
  29. (1.97004) BD ( 1) C  5- S  7
               ( 50.08%)   0.7077* C  5 s( 26.76%)p 2.73( 73.09%)d 0.01(  0.15%)
                                         0.0000  0.5172 -0.0114 -0.7197  0.0286
                                        -0.4595 -0.0298 -0.0025  0.0002  0.0283
                                         0.0002  0.0001  0.0160 -0.0218
               ( 49.92%)   0.7065* S  7 s( 19.52%)p 4.09( 79.78%)d 0.04(  0.71%)
                                         0.0000  0.0000  0.4406  0.0322  0.0000
                                         0.8407  0.0400  0.0000  0.2984 -0.0167
                                         0.0000  0.0033  0.0002  0.0590  0.0004
                                         0.0002  0.0395 -0.0451
  30. (1.97958) BD ( 1) O  6- H 12
               ( 73.96%)   0.8600* O  6 s( 19.62%)p 4.09( 80.27%)d 0.01(  0.12%)
                                         0.0000  0.4428  0.0098  0.7700  0.0365
                                         0.4565 -0.0023  0.0028  0.0002  0.0288
                                         0.0001  0.0001 -0.0057 -0.0176
               ( 26.04%)   0.5103* H 12 s( 99.64%)p 0.00(  0.36%)
                                         0.9982 -0.0048 -0.0539 -0.0266 -0.0002
 ---------------- non-Lewis ----------------------------------------------------
  31. (0.02429) BD*( 1) N  1- C  2
               ( 39.91%)   0.6317* N  1 s( 41.19%)p 1.43( 58.75%)d 0.00(  0.05%)
                                         0.0000 -0.6418 -0.0042 -0.7653  0.0053
                                         0.0420 -0.0012 -0.0035  0.0000  0.0021
                                        -0.0002  0.0000 -0.0146  0.0173
               ( 60.09%)  -0.7752* C  2 s( 32.22%)p 2.10( 67.68%)d 0.00(  0.10%)
                                         0.0000 -0.5667 -0.0314  0.8208  0.0482
                                        -0.0278 -0.0003  0.0037  0.0002 -0.0017
                                        -0.0003  0.0000 -0.0249  0.0199
  32. (0.00921) BD*( 1) N  1- H  8
               ( 29.95%)   0.5472* N  1 s( 29.35%)p 2.41( 70.61%)d 0.00(  0.04%)
                                         0.0000 -0.5418  0.0026  0.4141 -0.0271
                                        -0.7306  0.0098  0.0029 -0.0001  0.0111
                                        -0.0001  0.0001  0.0099  0.0128
               ( 70.05%)  -0.8370* H  8 s( 99.80%)p 0.00(  0.20%)
                                        -0.9990  0.0033 -0.0206  0.0391 -0.0001
  33. (0.00772) BD*( 1) N  1- H  9
               ( 29.99%)   0.5476* N  1 s( 29.32%)p 2.41( 70.64%)d 0.00(  0.04%)
                                         0.0000 -0.5415  0.0004  0.4914 -0.0280
                                         0.6812 -0.0062  0.0011 -0.0001 -0.0133
                                         0.0000  0.0000  0.0075  0.0129
               ( 70.01%)  -0.8367* H  9 s( 99.80%)p 0.00(  0.20%)
                                        -0.9990  0.0029 -0.0258 -0.0360 -0.0001
  34. (0.02217) BD*( 1) C  2- C  3
               ( 48.88%)   0.6992* C  2 s( 42.18%)p 1.37( 57.78%)d 0.00(  0.04%)
                                         0.0000  0.6495 -0.0033  0.4706 -0.0296
                                         0.5958  0.0219  0.0012 -0.0002  0.0111
                                         0.0001  0.0000 -0.0016 -0.0157
               ( 51.12%)  -0.7150* C  3 s( 35.84%)p 1.79( 64.09%)d 0.00(  0.07%)
                                         0.0000  0.5984  0.0174 -0.5722 -0.0306
                                        -0.5590  0.0122 -0.0017 -0.0001  0.0180
                                         0.0001  0.0000 -0.0031 -0.0179
  35. (0.40226) BD*( 2) C  2- C  3
               ( 51.33%)   0.7164* C  2 s(  0.00%)p 1.00( 99.95%)d 0.00(  0.05%)
                                         0.0000  0.0000  0.0000  0.0045  0.0000
                                        -0.0015  0.0000 -0.9997  0.0107  0.0000
                                        -0.0213 -0.0090  0.0001 -0.0001
               ( 48.67%)  -0.6977* C  3 s(  0.00%)p 1.00( 99.94%)d 0.00(  0.06%)
                                         0.0000  0.0000  0.0000  0.0045  0.0000
                                        -0.0015  0.0000 -0.9997  0.0103 -0.0001
                                         0.0105  0.0210 -0.0001  0.0000
  36. (0.03085) BD*( 1) C  2- S  7
               ( 48.91%)   0.6993* C  2 s( 25.19%)p 2.96( 74.67%)d 0.01(  0.14%)
                                         0.0000  0.5015 -0.0184  0.3202 -0.0349
                                        -0.8018  0.0013  0.0027 -0.0001 -0.0226
                                         0.0001 -0.0002 -0.0216 -0.0217
               ( 51.09%)  -0.7148* S  7 s( 19.01%)p 4.22( 80.25%)d 0.04(  0.74%)
                                         0.0000  0.0000  0.4348  0.0316  0.0000
                                        -0.4892 -0.0409  0.0000  0.7492  0.0132
                                         0.0000 -0.0034 -0.0002 -0.0554  0.0002
                                        -0.0004 -0.0460 -0.0467
  37. (0.01363) BD*( 1) C  3- C  4
               ( 50.30%)   0.7092* C  3 s( 34.10%)p 1.93( 65.86%)d 0.00(  0.05%)
                                         0.0000 -0.5839 -0.0068 -0.7896 -0.0126
                                         0.1826 -0.0404 -0.0038  0.0000  0.0117
                                        -0.0002  0.0001 -0.0091  0.0157
               ( 49.70%)  -0.7050* C  4 s( 34.57%)p 1.89( 65.38%)d 0.00(  0.05%)
                                         0.0000 -0.5880 -0.0060  0.7373 -0.0141
                                        -0.3296 -0.0363  0.0038  0.0000  0.0048
                                        -0.0002  0.0000 -0.0134  0.0159
  38. (0.01815) BD*( 1) C  3- H 10
               ( 38.32%)   0.6190* C  3 s( 29.94%)p 2.34( 70.03%)d 0.00(  0.03%)
                                         0.0000 -0.5469  0.0187  0.2180 -0.0083
                                        -0.8079 -0.0061  0.0022  0.0000  0.0072
                                         0.0000  0.0001  0.0101  0.0102
               ( 61.68%)  -0.7854* H 10 s( 99.90%)p 0.00(  0.10%)
                                        -0.9995  0.0014 -0.0077  0.0303 -0.0001
  39. (0.02703) BD*( 1) C  4- C  5
               ( 49.85%)   0.7060* C  4 s( 35.51%)p 1.81( 64.42%)d 0.00(  0.07%)
                                         0.0000 -0.5957 -0.0157 -0.1212 -0.0367
                                         0.7925  0.0095 -0.0018 -0.0002  0.0021
                                        -0.0001  0.0001  0.0185  0.0179
               ( 50.15%)  -0.7082* C  5 s( 45.20%)p 1.21( 54.76%)d 0.00(  0.04%)
                                         0.0000 -0.6723  0.0037 -0.0122 -0.0304
                                        -0.7393 -0.0057  0.0011 -0.0001  0.0008
                                        -0.0001  0.0001  0.0123  0.0160
  40. (0.38044) BD*( 2) C  4- C  5
               ( 50.64%)   0.7116* C  4 s(  0.00%)p 1.00( 99.93%)d 0.00(  0.07%)
                                         0.0000  0.0000  0.0001 -0.0045  0.0000
                                         0.0015  0.0000  0.9996 -0.0104  0.0001
                                        -0.0024 -0.0256  0.0001  0.0001
               ( 49.36%)  -0.7025* C  5 s(  0.00%)p 1.00( 99.95%)d 0.00(  0.05%)
                                         0.0000  0.0000  0.0000 -0.0045  0.0000
                                         0.0015  0.0000  0.9996 -0.0131 -0.0001
                                        -0.0109  0.0202  0.0000 -0.0001
  41. (0.01822) BD*( 1) C  4- H 11
               ( 38.33%)   0.6191* C  4 s( 29.78%)p 2.36( 70.19%)d 0.00(  0.03%)
                                         0.0000 -0.5455  0.0161 -0.6638  0.0055
                                        -0.5110 -0.0084 -0.0022  0.0000 -0.0120
                                        -0.0001  0.0000 -0.0052  0.0106
               ( 61.67%)  -0.7853* H 11 s( 99.91%)p 0.00(  0.09%)
                                        -0.9995  0.0014  0.0235  0.0196  0.0001
  42. (0.03021) BD*( 1) C  5- O  6
               ( 67.15%)   0.8195* C  5 s( 27.59%)p 2.62( 72.21%)d 0.01(  0.20%)
                                         0.0000  0.5244  0.0298  0.6919  0.0379
                                        -0.4899 -0.0437  0.0039  0.0003 -0.0362
                                         0.0003 -0.0002  0.0086 -0.0248
               ( 32.85%)  -0.5731* O  6 s( 36.71%)p 1.72( 63.20%)d 0.00(  0.09%)
                                         0.0000  0.6059  0.0046 -0.6329 -0.0052
                                         0.4810 -0.0032 -0.0036  0.0000 -0.0222
                                         0.0002 -0.0002 -0.0031 -0.0191
  43. (0.04282) BD*( 1) C  5- S  7
               ( 49.92%)   0.7065* C  5 s( 26.76%)p 2.73( 73.09%)d 0.01(  0.15%)
                                         0.0000  0.5172 -0.0114 -0.7197  0.0286
                                        -0.4595 -0.0298 -0.0025  0.0002  0.0283
                                         0.0002  0.0001  0.0160 -0.0218
               ( 50.08%)  -0.7077* S  7 s( 19.52%)p 4.09( 79.78%)d 0.04(  0.71%)
                                         0.0000  0.0000  0.4406  0.0322  0.0000
                                         0.8407  0.0400  0.0000  0.2984 -0.0167
                                         0.0000  0.0033  0.0002  0.0590  0.0004
                                         0.0002  0.0395 -0.0451
  44. (0.00909) BD*( 1) O  6- H 12
               ( 26.04%)   0.5103* O  6 s( 19.62%)p 4.09( 80.27%)d 0.01(  0.12%)
                                         0.0000 -0.4428 -0.0098 -0.7700 -0.0365
                                        -0.4565  0.0023 -0.0028 -0.0002 -0.0288
                                        -0.0001 -0.0001  0.0057  0.0176
               ( 73.96%)  -0.8600* H 12 s( 99.64%)p 0.00(  0.36%)
                                        -0.9982  0.0048  0.0539  0.0266  0.0002
  45. (0.00368) RY ( 1) N  1            s(  0.00%)p 1.00( 91.86%)d 0.09(  8.14%)
                                         0.0000  0.0000  0.0012  0.0001 -0.0054
                                        -0.0001  0.0021 -0.0301  0.9579 -0.0006
                                        -0.2853 -0.0012  0.0012 -0.0022
  46. (0.00262) RY ( 2) N  1            s(  0.76%)p99.99( 91.96%)d 9.62(  7.29%)
                                         0.0000  0.0012  0.0870 -0.0011 -0.0938
                                        -0.0060 -0.9543  0.0000  0.0014  0.2664
                                        -0.0004  0.0013  0.0434 -0.0058
  47. (0.00081) RY ( 3) N  1            s( 64.93%)p 0.51( 32.96%)d 0.03(  2.11%)
                                         0.0000  0.0151  0.8056 -0.0176 -0.5623
                                         0.0024  0.1146  0.0000 -0.0043 -0.0276
                                        -0.0003 -0.0003 -0.1374  0.0381
  48. (0.00010) RY ( 4) N  1            s( 22.70%)p 2.66( 60.27%)d 0.75( 17.03%)
  49. (0.00002) RY ( 5) N  1            s(  7.03%)p 0.54(  3.82%)d12.68( 89.15%)
  50. (0.00002) RY ( 6) N  1            s(  0.00%)p 1.00(  0.11%)d99.99( 99.89%)
  51. (0.00001) RY ( 7) N  1            s(  0.18%)p40.71(  7.29%)d99.99( 92.53%)
  52. (0.00001) RY ( 8) N  1            s(  0.00%)p 1.00(  8.03%)d11.45( 91.97%)
  53. (0.00000) RY ( 9) N  1            s(  4.54%)p 0.81(  3.70%)d20.22( 91.76%)
  54. (0.00701) RY ( 1) C  2            s( 13.89%)p 5.73( 79.59%)d 0.47(  6.52%)
                                         0.0000  0.0149  0.3725  0.0276  0.0880
                                        -0.0008 -0.8873  0.0001  0.0017  0.0695
                                         0.0014  0.0006  0.2418 -0.0434
  55. (0.00253) RY ( 2) C  2            s( 25.49%)p 2.67( 67.96%)d 0.26(  6.55%)
                                         0.0000  0.0379  0.5035  0.0092  0.7449
                                        -0.0209  0.3524 -0.0002 -0.0066 -0.0423
                                         0.0153 -0.0027  0.2510 -0.0225
  56. (0.00244) RY ( 3) C  2            s(  0.01%)p 1.00( 21.58%)d 3.63( 78.41%)
                                         0.0000  0.0006  0.0092  0.0001  0.0099
                                        -0.0003  0.0068  0.0229  0.4638 -0.0026
                                        -0.8810  0.0880  0.0082 -0.0075
  57. (0.00185) RY ( 4) C  2            s(  0.00%)p 1.00( 36.32%)d 1.75( 63.68%)
                                         0.0000 -0.0004  0.0025  0.0001 -0.0023
                                         0.0000 -0.0005  0.0081 -0.6026  0.0014
                                        -0.3867 -0.6980  0.0027 -0.0014
  58. (0.00166) RY ( 5) C  2            s( 45.55%)p 0.96( 43.70%)d 0.24( 10.76%)
                                         0.0000 -0.0510  0.6729  0.0312 -0.6186
                                        -0.0003  0.2310  0.0000 -0.0005 -0.3020
                                         0.0043  0.0023  0.1113 -0.0630
  59. (0.00066) RY ( 6) C  2            s(  2.35%)p 2.87(  6.74%)d38.62( 90.90%)
                                         0.0000 -0.0102  0.1531  0.0148 -0.1956
                                        -0.0296  0.1676  0.0001 -0.0010  0.9255
                                        -0.0010  0.0050  0.2024  0.1073
  60. (0.00041) RY ( 7) C  2            s( 11.93%)p 0.14(  1.66%)d 7.24( 86.41%)
                                         0.0000  0.0039  0.3454 -0.0138  0.1084
                                         0.0068 -0.0678 -0.0001  0.0008  0.1913
                                        -0.0031 -0.0010 -0.8990 -0.1390
  61. (0.00028) RY ( 8) C  2            s(  0.00%)p 1.00( 42.16%)d 1.37( 57.84%)
                                         0.0000  0.0000  0.0002  0.0000 -0.0028
                                         0.0000  0.0011  0.0076  0.6493  0.0035
                                         0.2710 -0.7106  0.0002  0.0040
  62. (0.00002) RY ( 9) C  2            s(  1.18%)p 0.19(  0.22%)d83.20( 98.60%)
  63. (0.00429) RY ( 1) C  3            s(  0.23%)p99.99( 95.29%)d19.25(  4.47%)
                                         0.0000 -0.0245  0.0415  0.0062 -0.7835
                                         0.0262  0.5816  0.0000 -0.0042  0.1024
                                         0.0010  0.0008  0.1848  0.0102
  64. (0.00321) RY ( 2) C  3            s(  8.19%)p10.71( 87.70%)d 0.50(  4.11%)
                                         0.0000  0.0189  0.2855  0.0301 -0.5753
                                         0.0102 -0.7382  0.0001 -0.0005 -0.1796
                                         0.0004 -0.0012 -0.0774 -0.0535
  65. (0.00168) RY ( 3) C  3            s(  0.00%)p 1.00( 95.43%)d 0.05(  4.57%)
                                         0.0000  0.0000  0.0005  0.0001  0.0037
                                         0.0000 -0.0019 -0.0084 -0.9768 -0.0011
                                        -0.1499  0.1525  0.0004 -0.0016
  66. (0.00072) RY ( 4) C  3            s( 90.02%)p 0.09(  7.66%)d 0.03(  2.33%)
                                         0.0000 -0.0110  0.9487 -0.0077  0.2086
                                         0.0242  0.1799 -0.0005  0.0062  0.1060
                                        -0.0384 -0.0040  0.0472 -0.0911
  67. (0.00069) RY ( 5) C  3            s(  0.14%)p12.79(  1.83%)d99.99( 98.03%)
                                         0.0000 -0.0004  0.0378 -0.0004  0.0091
                                         0.0010  0.0068  0.0112 -0.1343  0.0051
                                         0.9842  0.1078 -0.0033  0.0036
  68. (0.00010) RY ( 6) C  3            s(  0.41%)p17.89(  7.26%)d99.99( 92.33%)
                                         0.0000 -0.0094  0.0630 -0.0033 -0.0588
                                        -0.0081  0.2629  0.0000 -0.0006 -0.4532
                                        -0.0041 -0.0036 -0.8437  0.0774
  69. (0.00007) RY ( 7) C  3            s(  0.12%)p14.87(  1.84%)d99.99( 98.03%)
  70. (0.00003) RY ( 8) C  3            s(  0.00%)p 1.00(  2.81%)d34.58( 97.19%)
  71. (0.00001) RY ( 9) C  3            s(  1.01%)p 0.25(  0.26%)d97.86( 98.73%)
  72. (0.00450) RY ( 1) C  4            s(  0.42%)p99.99( 97.36%)d 5.36(  2.23%)
                                         0.0000  0.0220  0.0606 -0.0057 -0.9700
                                        -0.0316  0.1777  0.0000 -0.0042  0.1401
                                        -0.0003  0.0009  0.0506 -0.0089
  73. (0.00300) RY ( 2) C  4            s(  7.15%)p12.17( 87.05%)d 0.81(  5.80%)
                                         0.0000  0.0190  0.2668 -0.0187 -0.1193
                                         0.0195 -0.9249 -0.0001  0.0010  0.1716
                                         0.0008  0.0010  0.1574 -0.0616
  74. (0.00121) RY ( 3) C  4            s(  0.00%)p 1.00( 74.07%)d 0.35( 25.93%)
                                         0.0000 -0.0001  0.0025  0.0000 -0.0031
                                         0.0001  0.0019  0.0131  0.8605 -0.0024
                                        -0.4651  0.2074  0.0014 -0.0043
  75. (0.00100) RY ( 4) C  4            s( 87.38%)p 0.05(  4.67%)d 0.09(  7.96%)
                                         0.0000 -0.0112  0.9347  0.0199  0.0551
                                         0.0176  0.2072  0.0000 -0.0036 -0.2565
                                         0.0006 -0.0004 -0.0781 -0.0875
  76. (0.00080) RY ( 5) C  4            s(  0.00%)p 1.00( 22.07%)d 3.53( 77.93%)
                                         0.0000  0.0000  0.0024  0.0001 -0.0021
                                         0.0000  0.0012 -0.0110  0.4697  0.0036
                                         0.5669 -0.6766 -0.0017  0.0059
  77. (0.00013) RY ( 6) C  4            s(  3.73%)p 1.49(  5.57%)d24.33( 90.70%)
                                         0.0000 -0.0102  0.1928 -0.0045  0.1653
                                         0.0028  0.1684  0.0000  0.0004  0.9281
                                        -0.0023  0.0045 -0.2113  0.0309
  78. (0.00007) RY ( 7) C  4            s(  0.48%)p10.93(  5.21%)d99.99( 94.31%)
  79. (0.00003) RY ( 8) C  4            s(  0.00%)p 1.00(  3.93%)d24.47( 96.07%)
  80. (0.00001) RY ( 9) C  4            s(  0.98%)p 0.16(  0.16%)d99.99( 98.86%)
  81. (0.00896) RY ( 1) C  5            s(  7.08%)p12.42( 87.89%)d 0.71(  5.03%)
                                         0.0000 -0.0346  0.2638 -0.0166 -0.0614
                                         0.0447 -0.9343 -0.0001  0.0010 -0.0481
                                         0.0016 -0.0002  0.2086 -0.0668
  82. (0.00371) RY ( 2) C  5            s( 17.59%)p 3.31( 58.16%)d 1.38( 24.25%)
                                         0.0000  0.0400  0.4175 -0.0285 -0.7399
                                        -0.0075  0.1824 -0.0001 -0.0031 -0.4858
                                         0.0010 -0.0023 -0.0538 -0.0598
  83. (0.00255) RY ( 3) C  5            s(  0.00%)p 1.00(  7.54%)d12.27( 92.46%)
                                         0.0000  0.0000  0.0001  0.0001 -0.0011
                                         0.0000  0.0003 -0.0182  0.2739 -0.0042
                                        -0.5839  0.7640  0.0018 -0.0066
  84. (0.00171) RY ( 4) C  5            s(  0.00%)p 1.00( 40.27%)d 1.48( 59.73%)
                                         0.0000 -0.0002  0.0054 -0.0002  0.0009
                                         0.0001  0.0026  0.0097  0.6345 -0.0003
                                         0.7067  0.3129 -0.0015  0.0043
  85. (0.00153) RY ( 5) C  5            s( 20.69%)p 1.75( 36.14%)d 2.09( 43.16%)
                                         0.0000 -0.0365  0.4534 -0.0406  0.5997
                                         0.0031  0.0123 -0.0002  0.0004 -0.4685
                                        -0.0040 -0.0039 -0.4605 -0.0017
  86. (0.00151) RY ( 6) C  5            s( 38.72%)p 0.35( 13.39%)d 1.24( 47.89%)
                                         0.0000 -0.0101  0.6221 -0.0014  0.2140
                                         0.0107  0.2967 -0.0001 -0.0030  0.2563
                                        -0.0014 -0.0004  0.6396 -0.0640
  87. (0.00044) RY ( 7) C  5            s( 14.58%)p 0.27(  3.89%)d 5.59( 81.53%)
                                         0.0000  0.0086  0.3818  0.0176 -0.1929
                                        -0.0093 -0.0363  0.0001  0.0000  0.6859
                                        -0.0034  0.0012 -0.5759 -0.1143
  88. (0.00030) RY ( 8) C  5            s(  0.00%)p 1.00( 52.25%)d 0.91( 47.75%)
                                         0.0000  0.0000  0.0009  0.0001  0.0029
                                         0.0000 -0.0009 -0.0165 -0.7226 -0.0011
                                         0.3993  0.5639 -0.0030  0.0013
  89. (0.00002) RY ( 9) C  5            s(  1.79%)p 0.25(  0.45%)d54.56( 97.76%)
  90. (0.00206) RY ( 1) O  6            s(  0.00%)p 1.00( 90.61%)d 0.10(  9.39%)
                                         0.0000  0.0000  0.0007  0.0000 -0.0055
                                         0.0000  0.0005  0.0092  0.9518 -0.0009
                                        -0.2589  0.1638  0.0012 -0.0025
  91. (0.00137) RY ( 2) O  6            s(  9.02%)p 9.12( 82.32%)d 0.96(  8.65%)
                                         0.0000  0.0069  0.3003  0.0111 -0.5205
                                         0.0002 -0.7431  0.0000 -0.0028  0.1391
                                         0.0016  0.0007  0.2589 -0.0114
  92. (0.00035) RY ( 3) O  6            s( 76.10%)p 0.26( 19.65%)d 0.06(  4.25%)
                                         0.0000  0.0003  0.8723 -0.0029 -0.1538
                                        -0.0068  0.4157  0.0000 -0.0016  0.0975
                                        -0.0011  0.0001 -0.1786  0.0333
  93. (0.00007) RY ( 4) O  6            s(  9.15%)p 8.73( 79.86%)d 1.20( 10.99%)
  94. (0.00002) RY ( 5) O  6            s(  3.46%)p 0.61(  2.10%)d27.27( 94.43%)
  95. (0.00001) RY ( 6) O  6            s(  0.00%)p 1.00(  0.18%)d99.99( 99.82%)
  96. (0.00001) RY ( 7) O  6            s(  0.00%)p 1.00(  9.28%)d 9.78( 90.72%)
  97. (0.00000) RY ( 8) O  6            s(  1.34%)p 1.38(  1.86%)d72.06( 96.80%)
  98. (0.00000) RY ( 9) O  6            s(  0.97%)p14.92( 14.42%)d87.54( 84.61%)
  99. (0.00612) RY ( 1) S  7            s(  0.00%)p 1.00(  0.07%)d99.99( 99.93%)
                                         0.0000  0.0000  0.0000  0.0003  0.0000
                                         0.0000  0.0002  0.0000  0.0000  0.0001
                                         0.0000  0.0001 -0.0257 -0.0028 -0.9605
                                         0.2770  0.0040 -0.0083
 100. (0.00277) RY ( 2) S  7            s(  0.00%)p 1.00( 31.67%)d 2.16( 68.33%)
                                         0.0000  0.0000  0.0000  0.0002  0.0000
                                         0.0001 -0.0024  0.0000  0.0000  0.0006
                                         0.0000 -0.0178  0.5625 -0.0036  0.2151
                                         0.7981 -0.0018 -0.0005
 101. (0.00257) RY ( 3) S  7            s(  0.92%)p27.93( 25.78%)d79.42( 73.30%)
                                         0.0000  0.0000 -0.0039  0.0960  0.0000
                                        -0.0014 -0.1860  0.0000  0.0052 -0.4724
                                         0.0000  0.0000 -0.0005 -0.4840  0.0036
                                        -0.0015  0.7054  0.0347
 102. (0.00096) RY ( 4) S  7            s( 66.08%)p 0.23( 15.52%)d 0.28( 18.40%)
                                         0.0000  0.0000 -0.0247  0.8125  0.0000
                                         0.0190 -0.0869  0.0000 -0.0624  0.3787
                                         0.0000  0.0002 -0.0010 -0.2686  0.0031
                                        -0.0024 -0.0476 -0.3310
 103. (0.00074) RY ( 5) S  7            s(  6.11%)p 1.77( 10.79%)d13.60( 83.10%)
                                         0.0000  0.0000 -0.0102  0.2470  0.0000
[...]
  8 H                 0.0       0.0      66.3      -0.3       0.0       0.0
  9 H                -0.0       0.0       0.0       0.3       0.1      -0.4
 10 H                 0.1      -0.0       0.0      -0.4       0.0       0.0

                     36        37        38        39        40        41   
                   0.00000   0.00000   0.00000   0.00000   0.00000   0.00000
                   0.01363   0.01815   0.02703   0.38044   0.01822   0.03021
                  --------  --------  --------  --------  --------  --------
  0 N                -1.1       0.1       0.0      -0.0       0.0       0.1
  1 C                 2.3       1.3       1.4      -0.0      -0.1       0.8
  2 C                48.8      44.5       0.2      -0.7       0.8      -0.9
  3 C                48.7       0.9      53.0      51.5      44.6       2.6
  4 C                 1.1      -0.4      43.1      50.1       0.8      61.5
  5 O                -0.4       0.0       1.6      -0.5       0.0      35.0
  6 S                 0.2      -0.7       1.0      -0.5      -0.7       0.1
  9 H                 0.2      54.4      -0.4       0.0       0.0       0.0
 10 H                 0.1       0.0       0.2       0.1      54.5      -0.1
 11 H                -0.0       0.0       0.0      -0.0       0.0       0.8

                     42        43        44        45        46        47   
                   0.00000   0.00000   0.00000   0.00000   0.00000   0.00000
                   0.04282   0.00909   0.00368   0.00262   0.00081   0.00010
                  --------  --------  --------  --------  --------  --------
  0 N                -0.3       0.0     104.9     143.3     200.3     122.4
  1 C                 0.6       0.0      -3.2     -28.5     -86.5      -1.4
  2 C                 0.0      -0.0      -0.1       2.6      -7.4      -0.4
  3 C                 2.5       0.1       0.0      -0.1       0.9      -0.0
  4 C                51.5      -0.1      -0.0       0.2      -1.8      -0.0
  5 O                 0.4      28.6      -0.0       0.0      -0.8      -0.0
  6 S                45.8      -0.2      -0.1      -1.0      -2.1      -0.1
  7 H                 0.0       0.0      -0.7      -8.9      -0.5     -10.5
  8 H                 0.0      -0.0      -0.8      -7.5      -1.2     -10.0
  9 H                 0.0       0.0      -0.0      -0.1      -0.5      -0.0
 10 H                -0.5       0.0       0.0      -0.0      -0.2       0.0
 11 H                -0.1      71.5      -0.0      -0.0      -0.1      -0.0

                     48        49        50        51        52        53   
                   0.00000   0.00000   0.00000   0.00000   0.00000   0.00000
                   0.00002   0.00002   0.00001   0.00001   0.00000   0.00701
                  --------  --------  --------  --------  --------  --------
  0 N               104.4     104.9     112.6     103.1     110.8     -14.5
  1 C                -1.4      -0.1      -2.8      -2.4      -1.0     180.5
  2 C                 0.1      -0.0       0.3      -0.0      -0.0     -19.0
  3 C                -0.0      -0.0      -0.0      -0.0       0.0      -1.5
  4 C                 0.0       0.0      -0.0      -0.0      -0.0      -1.2
  6 S                 0.0      -0.0      -0.0      -0.1      -0.0     -45.8
  7 H                -1.7      -2.4      -3.6      -0.4      -5.7      -0.2
  8 H                -1.6      -2.5      -6.4      -0.2      -3.9       0.2
  9 H                -0.0      -0.0      -0.0      -0.0      -0.0       1.5

                     54        55        56        57        58        59   
                   0.00000   0.00000   0.00000   0.00000   0.00000   0.00000
                   0.00253   0.00244   0.00185   0.00166   0.00066   0.00041
                  --------  --------  --------  --------  --------  --------
  0 N               -35.0      -0.9      -2.7     -63.2     -11.8      -4.9
  1 C               303.6     104.9     107.7     237.9     118.4     121.9
  2 C              -155.7      -2.6      -2.9     -68.9      -5.7     -14.9
  3 C                21.5       0.0      -0.1      -4.7       0.5       2.1
  4 C               -16.8      -0.0       0.1       1.9      -1.5      -0.5
  5 O                -1.1      -0.0       0.0      -0.0      -0.1       0.0
  6 S               -12.3      -1.3      -2.1      -0.1       0.0      -3.0
  7 H                -0.9      -0.0      -0.0      -1.6       0.6      -0.1
  8 H                -0.3      -0.0      -0.0      -1.4      -0.7      -0.2
  9 H                -2.8       0.0       0.0       0.1       0.3      -0.3
 10 H                -0.2      -0.0      -0.0      -0.1      -0.0       0.0
 11 H                -0.1      -0.0       0.0      -0.0      -0.0       0.0

                     60        61        62        63        64        65   
                   0.00000   0.00000   0.00000   0.00000   0.00000   0.00000
                   0.00028   0.00002   0.00429   0.00321   0.00168   0.00072
                  --------  --------  --------  --------  --------  --------
  0 N                -3.2      -0.8       2.0      -2.4      -0.1      -3.3
  1 C               108.0     103.7     -33.5    -126.0      -6.4     -90.0
  2 C                -4.7      -0.9     195.9     270.1     112.1     318.0
  3 C                 0.2       0.1     -39.1     -35.1      -4.8    -124.1
  4 C                -0.1      -0.0       1.7       2.8       0.1      14.2
  5 O                -0.0      -0.0       0.1       0.1       0.0       0.1
  6 S                 0.0      -1.8      -1.0      -1.9      -0.0      -0.4
  7 H                -0.1      -0.0      -0.2      -0.7      -0.0      -0.0
  8 H                -0.0      -0.1      -0.0       0.1      -0.0      -0.0
  9 H                -0.1      -0.0     -25.1      -8.5      -0.9     -12.9
 10 H                -0.0      -0.0      -0.6       1.4      -0.0      -1.5

                     66        67        68        69        70        71   
                   0.00000   0.00000   0.00000   0.00000   0.00000   0.00000
                   0.00069   0.00010   0.00007   0.00003   0.00001   0.00450
                  --------  --------  --------  --------  --------  --------
  0 N                -0.0      -0.7       0.1      -0.1      -0.1       0.1
  1 C                -1.5      -5.5      -2.9      -1.8      -2.5       1.0
  2 C               103.8     119.5     107.8     104.9     107.7     -55.6
  3 C                -2.3      -2.8      -2.1      -0.7      -1.8     201.3
  4 C                 0.0      -0.1      -0.1      -0.0       0.2     -27.9
  5 O                -0.0      -0.0      -0.0      -0.0      -0.0      -0.6
  6 S                -0.0       0.3      -0.2      -0.0      -0.1      -1.6
  9 H                -0.0     -10.6      -2.7      -2.3      -3.4      -0.9
 10 H                -0.0      -0.0       0.2       0.0      -0.0     -15.9
 11 H                -0.0       0.0      -0.0      -0.0      -0.0       0.1

                     72        73        74        75        76        77   
                   0.00000   0.00000   0.00000   0.00000   0.00000   0.00000
                   0.00300   0.00121   0.00100   0.00080   0.00013   0.00007
                  --------  --------  --------  --------  --------  --------
  0 N                 0.1      -0.0       0.5       0.0      -0.1      -0.0
  1 C                 5.2       0.0      12.4       0.1      -0.5      -0.0
  2 C               -38.4      -3.3    -102.5      -3.5      -6.2      -2.5
  3 C               263.2     110.0     301.4     105.6     122.7     111.1
  4 C              -117.0      -5.4     -92.1      -2.2      -5.3      -3.2
  5 O                -1.9      -0.2      -2.3       0.0      -0.3      -0.2
  9 H                 1.2      -0.0      -1.3      -0.1      -0.0       0.2
 10 H               -12.1      -1.0     -16.1       0.0     -10.2      -5.3
 11 H                -0.4      -0.0      -0.1       0.0      -0.0       0.0

                     78        79        80        81        82        83   
                   0.00000   0.00000   0.00000   0.00000   0.00000   0.00000
                   0.00003   0.00001   0.00896   0.00371   0.00255   0.00171
                  --------  --------  --------  --------  --------  --------
  0 N                -0.0      -0.1      -0.1      -0.8       0.0       0.0
  1 C                -0.0       0.0      -3.1      -9.2       0.0       0.0
  2 C                -0.8      -1.1      -1.9      13.6      -0.0      -0.0
  3 C               105.0     106.8     -15.3     -55.7      -2.0      -2.2
  4 C                -1.8      -2.7     159.4     203.4     105.1     105.5
  5 O                -0.1      -0.1     -16.0     -20.4      -2.9      -0.3
  6 S                -0.0      -0.0     -22.9     -26.5      -0.1      -3.0
 10 H                -2.2      -2.8       0.5      -0.4      -0.0       0.0
 11 H                -0.0      -0.0      -0.6      -3.9      -0.1      -0.0

                     84        85        86        87        88        89   
                   0.00000   0.00000   0.00000   0.00000   0.00000   0.00000
                   0.00153   0.00151   0.00044   0.00030   0.00002   0.00206
                  --------  --------  --------  --------  --------  --------
  0 N                -0.0      -0.3      -0.1      -0.0      -0.1      -0.0
  1 C                 0.1      -5.5      -1.3      -0.1      -0.1      -0.0
  2 C                -2.3       7.7       3.3       0.2       0.1       0.0
  3 C               -45.0    -120.1     -19.6      -5.9      -0.3      -0.2
  4 C               154.0     224.8     127.9     108.1     104.2      -2.4
  5 O                -6.5      -1.3      -1.4      -1.9      -0.7     103.6
  6 S                 0.6      -2.3      -8.3      -0.2      -3.0      -0.2
 10 H                -0.1      -1.5      -0.2      -0.1      -0.0      -0.0
 11 H                -0.7      -1.6      -0.2       0.0      -0.1      -0.8

                     90        91        92        93        94        95   
                   0.00000   0.00000   0.00000   0.00000   0.00000   0.00000
                   0.00137   0.00035   0.00007   0.00002   0.00001   0.00001
                  --------  --------  --------  --------  --------  --------
  0 N                -0.1      -0.7       0.0      -0.0      -0.0      -0.0
  1 C                -0.3      -1.1      -0.0      -0.0      -0.0      -0.0
  2 C                 0.2       0.4      -0.1       0.0       0.0      -0.0
  3 C                -1.3      -3.0      -0.7      -0.1      -0.0      -0.0
  4 C               -16.0     -21.5      -2.2      -2.8      -0.0      -2.0
  5 O               121.7     130.0     108.9     103.6     102.5     102.1
  6 S                -0.0      -1.7       0.2      -0.0      -0.0      -0.1
 10 H                -0.0      -0.1      -0.0      -0.0      -0.0      -0.0
 11 H                -4.3      -2.2      -6.1      -0.7      -2.4       0.0

                     96        97        98        99       100       101   
                   0.00000   0.00000   0.00000   0.00000   0.00000   0.00000
                   0.00000   0.00000   0.00612   0.00277   0.00257   0.00096
                  --------  --------  --------  --------  --------  --------
  0 N                -0.0      -0.0      -0.1       0.0      -0.3      -1.9
  1 C                 0.0       0.0      -0.4      -0.1       1.7     -42.2
  2 C                -0.0      -0.0      -0.1      -0.0      -1.9       1.0
  3 C                -0.2       0.1      -0.1       0.0      -1.0       4.5
  4 C                -0.8      -2.1      -0.4      -0.1       0.7     -30.5
  5 O               105.1     107.2      -0.1       0.0      -0.4      -1.2
  6 S                -0.2      -0.2     101.1     100.2     101.3     170.8
  8 H                -0.0      -0.0      -0.0      -0.0      -0.1      -0.3
  9 H                -0.0      -0.0      -0.0      -0.0      -0.0       0.2
 10 H                -0.0      -0.0      -0.0       0.0      -0.0       0.2
 11 H                -3.8      -5.0      -0.0      -0.0      -0.0      -0.5

                    102       103       104       105       106       107   
                   0.00000   0.00000   0.00000   0.00000   0.00000   0.00000
                   0.00074   0.00042   0.00006   0.00004   0.00003   0.00209
                  --------  --------  --------  --------  --------  --------
  0 N                -0.2       1.3      -0.5      -0.6      -0.1     -10.8
  1 C                 0.7     -14.0       0.9      -3.9      -1.8      -3.0
  2 C                 0.7      -3.4      -0.4       0.8      -0.0      -0.3
  3 C                -1.0      -3.7      -0.5       0.4      -0.0      -0.1
  4 C                -3.0     -17.0      -3.9      -2.1      -1.7      -0.0
  5 O                 0.1       0.3      -0.2      -0.5      -0.2      -0.0
  6 S               102.5     137.3     104.9     106.0     103.9      -0.1
  7 H                -0.0       0.0      -0.0      -0.0      -0.0     116.7
  8 H                 0.2      -0.7      -0.0      -0.1      -0.0      -1.3
  9 H                -0.0      -0.0      -0.0      -0.0      -0.0      -1.0
 11 H                 0.0      -0.1      -0.3      -0.0      -0.0      -0.0

                    108       109       110       111       112       113   
                   0.00000   0.00000   0.00000   0.00000   0.00000   0.00000
                   0.00073   0.00021   0.00003   0.00209   0.00079   0.00020
                  --------  --------  --------  --------  --------  --------
  0 N                -3.4      -3.1      -5.7     -10.8      -3.4      -3.1
  1 C                -0.1      -0.2      -0.1      -2.9      -0.1      -0.3
  2 C                -0.0      -0.0      -0.0      -0.1      -0.0      -0.0
  6 S                -0.0      -0.0      -0.0      -0.6      -0.0      -0.0
  7 H               103.8     104.1     106.1      -1.4      -0.3      -0.8
  8 H                -0.3      -0.7      -0.3     116.0     103.8     104.2

                    114       115       116       117       118       119   
                   0.00000   0.00000   0.00000   0.00000   0.00000   0.00000
                   0.00003   0.00155   0.00034   0.00008   0.00005   0.00172
                  --------  --------  --------  --------  --------  --------
  0 N                -5.4      -0.5      -0.0       0.0      -0.0      -0.2
  1 C                -0.1      -1.9      -0.1      -0.1      -0.1      -0.0
  2 C                -0.0     -41.6      -3.1      -5.3      -7.6      -1.1
  3 C                -0.0      -1.2      -0.1      -0.6      -0.1     -41.6
  4 C                -0.0       0.1      -0.0      -0.1      -0.1      -2.1
  6 S                -0.1       0.2      -0.0      -0.1      -0.0       0.2
  7 H                -0.2      -0.9      -0.0      -0.0      -0.1       0.0
  8 H               105.9      -0.0      -0.0      -0.0      -0.0      -0.0
  9 H                -0.0     146.4     103.3     106.3     108.1      -0.5
 10 H                -0.0      -0.5      -0.0      -0.1      -0.1     146.4
 11 H                -0.0      -0.0      -0.0      -0.0      -0.0      -1.0

                    120       121       122       123       124       125   
                   0.00000   0.00000   0.00000   0.00000   0.00000   0.00000
                   0.00033   0.00008   0.00005   0.00192   0.00140   0.00090
                  --------  --------  --------  --------  --------  --------
  0 N                -0.0      -0.0      -0.0      -0.1      -0.0       0.0
  1 C                -0.0      -0.1      -0.0      -0.1      -0.0       0.1
  2 C                -0.1      -0.7       0.0       0.0      -0.0      -0.1
  3 C                -3.0      -4.2      -8.2       0.0      -0.0       0.2
  4 C                -0.1      -0.5       0.0      -5.3      -0.1      -1.4
  5 O                -0.0      -0.1      -0.0      -5.1      -3.2      -2.0
  6 S                -0.0      -0.1      -0.0      -0.2      -0.0      -0.7
  9 H                -0.0      -0.1      -0.0      -0.0      -0.0      -0.0
 10 H               103.3     105.7     108.4      -1.0      -0.0      -0.1
 11 H                -0.0      -0.0      -0.1     111.8     103.3     104.1

                    126   
                   0.00000
                   0.00002
                  --------
  3 C                 0.2
  4 C                -0.2
  5 O                -2.7
 11 H               102.8

Storing NBOs: 7098.nbo
                                    *** NBOs were stored ***

                                *** returned from GENNBO program ***

-------
TIMINGS
-------

Total SCF time: 0 days 0 hours 0 min 5 sec 

Total time                  ....       5.208 sec
Sum of individual times     ....       5.599 sec  (107.5%)

Fock matrix formation       ....       3.516 sec  ( 67.5%)
  Coulomb formation         ....       2.064 sec  ( 58.7% of F)
  Split-RI-J                ....       2.055 sec  ( 58.5% of F)
  XC integration            ....       1.447 sec  ( 41.2% of F)
    Basis function eval.    ....       0.497 sec  ( 34.3% of XC)
    Density eval.           ....       0.259 sec  ( 17.9% of XC)
    XC-Functional eval.     ....       0.103 sec  (  7.1% of XC)
    XC-Potential eval.      ....       0.547 sec  ( 37.8% of XC)
Diagonalization             ....       0.022 sec  (  0.4%)
Density matrix formation    ....       0.003 sec  (  0.1%)
Population analysis         ....       1.192 sec  ( 22.9%)
Initial guess               ....       0.302 sec  (  5.8%)
Orbital Transformation      ....       0.000 sec  (  0.0%)
Orbital Orthonormalization  ....       0.000 sec  (  0.0%)
DIIS solution               ....       0.005 sec  (  0.1%)
SOSCF solution              ....       0.015 sec  (  0.3%)
Grid generation             ....       0.544 sec  ( 10.5%)
           ************************************************************
           *              Shut down parallel processing               *
           ************************************************************

-------------------------   --------------------
FINAL SINGLE POINT ENERGY      -682.732370839441
-------------------------   --------------------


                            ***************************************
                            *     ORCA property calculations      *
                            ***************************************

                                    ---------------------
                                    Active property flags
                                    ---------------------
   (+) Dipole Moment


------------------------------------------------------------------------------
                       ORCA ELECTRIC PROPERTIES CALCULATION
------------------------------------------------------------------------------

Dipole Moment Calculation                       ... on
Quadrupole Moment Calculation                   ... off
Polarizability Calculation                      ... off
GBWName                                         ... 7098.gbw
Electron density file                           ... 7098.scfp.tmp

-------------
DIPOLE MOMENT
-------------
                                X             Y             Z
Electronic contribution:      1.01662      -4.31039       0.01112
Nuclear contribution   :     -1.39845       4.80062      -0.01346
                        -----------------------------------------
Total Dipole Moment    :     -0.38183       0.49023      -0.00234
                        -----------------------------------------
Magnitude (a.u.)       :      0.62139
Magnitude (Debye)      :      1.57945


Timings for individual modules:

Sum of individual times         ...        6.311 sec (=   0.105 min)
GTO integral calculation        ...        0.471 sec (=   0.008 min)   7.5 %
SCF iterations                  ...        5.841 sec (=   0.097 min)  92.5 %
                             ****ORCA TERMINATED NORMALLY****
TOTAL RUN TIME: 0 days 0 hours 0 minutes 6 seconds 703 msec
